
     Program PWSCF v.6.8 starts on  7Mar2023 at 14:16:53 

     This program is part of the open-source Quantum ESPRESSO suite
     for quantum simulation of materials; please cite
         "P. Giannozzi et al., J. Phys.:Condens. Matter 21 395502 (2009);
         "P. Giannozzi et al., J. Phys.:Condens. Matter 29 465901 (2017);
         "P. Giannozzi et al., J. Chem. Phys. 152 154105 (2020);
          URL http://www.quantum-espresso.org", 
     in publications or presentations arising from this work. More details at
     http://www.quantum-espresso.org/quote

     Parallel version (MPI), running on     1 processors

     MPI processes distributed on     1 nodes
     2903 MiB available memory on the printing compute node when the environment starts

     Waiting for input...
     Reading input from standard input

     Current dimensions of program PWSCF are:
     Max number of different atomic species (ntypx) = 10
     Max number of k-points (npk) =  40000
     Max angular momentum in pseudopotentials (lmaxx) =  4
     Message from routine volume:
     axis vectors are left-handed
     file Al.pbe-n-kjpaw_psl.1.0.0.UPF: wavefunction(s)  3S 3P renormalized
     Message from routine setup:
     using ibrav=0 with symmetry is DISCOURAGED, use correct ibrav instead

     Subspace diagonalization in iterative solution of the eigenvalue problem:
     a serial algorithm will be used


     G-vector sticks info
     --------------------
     sticks:   dense  smooth     PW     G-vecs:    dense   smooth      PW
     Sum         475     241     85                 6879     2445     531

     Using Slab Decomposition



     bravais-lattice index     =            0
     lattice parameter (alat)  =       5.3984  a.u.
     unit-cell volume          =     111.2451 (a.u.)^3
     number of atoms/cell      =            1
     number of atomic types    =            1
     number of electrons       =         3.00
     number of Kohn-Sham states=            6
     kinetic-energy cutoff     =      30.0000  Ry
     charge density cutoff     =     240.0000  Ry
     scf convergence threshold =      2.0E-10
     mixing beta               =       0.4000
     number of iterations used =            8  plain     mixing
     energy convergence thresh.=      1.0E-05
     force convergence thresh. =      1.0E-04
     press convergence thresh. =      5.0E-01
     Exchange-correlation= SLA  PW   PBX  PBC
                           (   1   4   3   4   0   0   0)
     nstep                     =           50


     celldm(1)=   5.398402  celldm(2)=   0.000000  celldm(3)=   0.000000
     celldm(4)=   0.000000  celldm(5)=   0.000000  celldm(6)=   0.000000

     crystal axes: (cart. coord. in units of alat)
               a(1) = (   0.707107   0.707107   0.000000 )  
               a(2) = (   0.707107   0.000000   0.707107 )  
               a(3) = (   0.000000   0.707107   0.707107 )  

     reciprocal axes: (cart. coord. in units 2 pi/alat)
               b(1) = (  0.707107  0.707107 -0.707107 )  
               b(2) = (  0.707107 -0.707107  0.707107 )  
               b(3) = ( -0.707107  0.707107  0.707107 )  


     PseudoPot. # 1 for Al read from file:
     ./pseudo/Al.pbe-n-kjpaw_psl.1.0.0.UPF
     MD5 check sum: cfc449ca30b5f3223ec38ddd88ac046d
     Pseudo is Projector augmented-wave + core cor, Zval =  3.0
     Generated using "atomic" code by A. Dal Corso  v.5.1
     Shape of augmentation charge: PSQ
     Using radial grid of 1135 points,  6 beta functions with: 
                l(1) =   0
                l(2) =   0
                l(3) =   1
                l(4) =   1
                l(5) =   2
                l(6) =   2
     Q(r) pseudized with 0 coefficients 


     atomic species   valence    mass     pseudopotential
        Al             3.00    26.98154     Al( 1.00)

     48 Sym. Ops., with inversion, found


                                    s                        frac. trans.

      isym =  1     identity                                     

 cryst.   s( 1) = (     1          0          0      )
                  (     0          1          0      )
                  (     0          0          1      )

 cart.    s( 1) = (  1.0000000  0.0000000  0.0000000 )
                  (  0.0000000  1.0000000  0.0000000 )
                  (  0.0000000  0.0000000  1.0000000 )


      isym =  2     180 deg rotation - cart. axis [0,0,1]        

 cryst.   s( 2) = (    -1          0          0      )
                  (    -1          0          1      )
                  (    -1          1          0      )

 cart.    s( 2) = ( -1.0000000  0.0000000  0.0000000 )
                  (  0.0000000 -1.0000000  0.0000000 )
                  (  0.0000000  0.0000000  1.0000000 )


      isym =  3     180 deg rotation - cart. axis [0,1,0]        

 cryst.   s( 3) = (     0         -1          1      )
                  (     0         -1          0      )
                  (     1         -1          0      )

 cart.    s( 3) = ( -1.0000000  0.0000000  0.0000000 )
                  (  0.0000000  1.0000000  0.0000000 )
                  (  0.0000000  0.0000000 -1.0000000 )


      isym =  4     180 deg rotation - cart. axis [1,0,0]        

 cryst.   s( 4) = (     0          1         -1      )
                  (     1          0         -1      )
                  (     0          0         -1      )

 cart.    s( 4) = (  1.0000000  0.0000000  0.0000000 )
                  (  0.0000000 -1.0000000  0.0000000 )
                  (  0.0000000  0.0000000 -1.0000000 )


      isym =  5     180 deg rotation - cart. axis [1,1,0]        

 cryst.   s( 5) = (     1          0          0      )
                  (     1         -1          0      )
                  (     1          0         -1      )

 cart.    s( 5) = (  0.0000000  1.0000000  0.0000000 )
                  (  1.0000000  0.0000000  0.0000000 )
                  (  0.0000000  0.0000000 -1.0000000 )


      isym =  6     180 deg rotation - cart. axis [1,-1,0]       

 cryst.   s( 6) = (    -1          0          0      )
                  (     0          0         -1      )
                  (     0         -1          0      )

 cart.    s( 6) = (  0.0000000 -1.0000000  0.0000000 )
                  ( -1.0000000  0.0000000  0.0000000 )
                  (  0.0000000  0.0000000 -1.0000000 )


      isym =  7      90 deg rotation - cart. axis [0,0,-1]       

 cryst.   s( 7) = (     0          1         -1      )
                  (    -1          1          0      )
                  (     0          1          0      )

 cart.    s( 7) = (  0.0000000  1.0000000  0.0000000 )
                  ( -1.0000000  0.0000000  0.0000000 )
                  (  0.0000000  0.0000000  1.0000000 )


      isym =  8      90 deg rotation - cart. axis [0,0,1]        

 cryst.   s( 8) = (     0         -1          1      )
                  (     0          0          1      )
                  (    -1          0          1      )

 cart.    s( 8) = (  0.0000000 -1.0000000  0.0000000 )
                  (  1.0000000  0.0000000  0.0000000 )
                  (  0.0000000  0.0000000  1.0000000 )


      isym =  9     180 deg rotation - cart. axis [1,0,1]        

 cryst.   s( 9) = (    -1          1          0      )
                  (     0          1          0      )
                  (     0          1         -1      )

 cart.    s( 9) = (  0.0000000  0.0000000  1.0000000 )
                  (  0.0000000 -1.0000000  0.0000000 )
                  (  1.0000000  0.0000000  0.0000000 )


      isym = 10     180 deg rotation - cart. axis [-1,0,1]       

 cryst.   s(10) = (     0          0         -1      )
                  (     0         -1          0      )
                  (    -1          0          0      )

 cart.    s(10) = (  0.0000000  0.0000000 -1.0000000 )
                  (  0.0000000 -1.0000000  0.0000000 )
                  ( -1.0000000  0.0000000  0.0000000 )


      isym = 11      90 deg rotation - cart. axis [0,1,0]        

 cryst.   s(11) = (     1         -1          0      )
                  (     1          0         -1      )
                  (     1          0          0      )

 cart.    s(11) = (  0.0000000  0.0000000  1.0000000 )
                  (  0.0000000  1.0000000  0.0000000 )
                  ( -1.0000000  0.0000000  0.0000000 )


      isym = 12      90 deg rotation - cart. axis [0,-1,0]       

 cryst.   s(12) = (     0          0          1      )
                  (    -1          0          1      )
                  (     0         -1          1      )

 cart.    s(12) = (  0.0000000  0.0000000 -1.0000000 )
                  (  0.0000000  1.0000000  0.0000000 )
                  (  1.0000000  0.0000000  0.0000000 )


      isym = 13     180 deg rotation - cart. axis [0,1,1]        

 cryst.   s(13) = (    -1          0          1      )
                  (     0         -1          1      )
                  (     0          0          1      )

 cart.    s(13) = ( -1.0000000  0.0000000  0.0000000 )
                  (  0.0000000  0.0000000  1.0000000 )
                  (  0.0000000  1.0000000  0.0000000 )


      isym = 14     180 deg rotation - cart. axis [0,1,-1]       

 cryst.   s(14) = (     0         -1          0      )
                  (    -1          0          0      )
                  (     0          0         -1      )

 cart.    s(14) = ( -1.0000000  0.0000000  0.0000000 )
                  (  0.0000000  0.0000000 -1.0000000 )
                  (  0.0000000 -1.0000000  0.0000000 )


      isym = 15      90 deg rotation - cart. axis [-1,0,0]       

 cryst.   s(15) = (     1          0         -1      )
                  (     1          0          0      )
                  (     1         -1          0      )

 cart.    s(15) = (  1.0000000  0.0000000  0.0000000 )
                  (  0.0000000  0.0000000  1.0000000 )
                  (  0.0000000 -1.0000000  0.0000000 )


      isym = 16      90 deg rotation - cart. axis [1,0,0]        

 cryst.   s(16) = (     0          1          0      )
                  (     0          1         -1      )
                  (    -1          1          0      )

 cart.    s(16) = (  1.0000000  0.0000000  0.0000000 )
                  (  0.0000000  0.0000000 -1.0000000 )
                  (  0.0000000  1.0000000  0.0000000 )


      isym = 17     120 deg rotation - cart. axis [-1,-1,-1]     

 cryst.   s(17) = (     0          1          0      )
                  (     0          0          1      )
                  (     1          0          0      )

 cart.    s(17) = (  0.0000000  1.0000000  0.0000000 )
                  (  0.0000000  0.0000000  1.0000000 )
                  (  1.0000000  0.0000000  0.0000000 )


      isym = 18     120 deg rotation - cart. axis [-1,1,1]       

 cryst.   s(18) = (     0         -1          0      )
                  (     1         -1          0      )
                  (     0         -1          1      )

 cart.    s(18) = (  0.0000000 -1.0000000  0.0000000 )
                  (  0.0000000  0.0000000  1.0000000 )
                  ( -1.0000000  0.0000000  0.0000000 )


      isym = 19     120 deg rotation - cart. axis [1,1,-1]       

 cryst.   s(19) = (     1          0         -1      )
                  (     0          0         -1      )
                  (     0          1         -1      )

 cart.    s(19) = (  0.0000000  1.0000000  0.0000000 )
                  (  0.0000000  0.0000000 -1.0000000 )
                  ( -1.0000000  0.0000000  0.0000000 )


      isym = 20     120 deg rotation - cart. axis [1,-1,1]       

 cryst.   s(20) = (    -1          0          1      )
                  (    -1          1          0      )
                  (    -1          0          0      )

 cart.    s(20) = (  0.0000000 -1.0000000  0.0000000 )
                  (  0.0000000  0.0000000 -1.0000000 )
                  (  1.0000000  0.0000000  0.0000000 )


      isym = 21     120 deg rotation - cart. axis [1,1,1]        

 cryst.   s(21) = (     0          0          1      )
                  (     1          0          0      )
                  (     0          1          0      )

 cart.    s(21) = (  0.0000000  0.0000000  1.0000000 )
                  (  1.0000000  0.0000000  0.0000000 )
                  (  0.0000000  1.0000000  0.0000000 )


      isym = 22     120 deg rotation - cart. axis [-1,1,-1]      

 cryst.   s(22) = (     0          0         -1      )
                  (     0          1         -1      )
                  (     1          0         -1      )

 cart.    s(22) = (  0.0000000  0.0000000  1.0000000 )
                  ( -1.0000000  0.0000000  0.0000000 )
                  (  0.0000000 -1.0000000  0.0000000 )


      isym = 23     120 deg rotation - cart. axis [1,-1,-1]      

 cryst.   s(23) = (    -1          1          0      )
                  (    -1          0          0      )
                  (    -1          0          1      )

 cart.    s(23) = (  0.0000000  0.0000000 -1.0000000 )
                  ( -1.0000000  0.0000000  0.0000000 )
                  (  0.0000000  1.0000000  0.0000000 )


      isym = 24     120 deg rotation - cart. axis [-1,-1,1]      

 cryst.   s(24) = (     1         -1          0      )
                  (     0         -1          1      )
                  (     0         -1          0      )

 cart.    s(24) = (  0.0000000  0.0000000 -1.0000000 )
                  (  1.0000000  0.0000000  0.0000000 )
                  (  0.0000000 -1.0000000  0.0000000 )


      isym = 25     inversion                                    

 cryst.   s(25) = (    -1          0          0      )
                  (     0         -1          0      )
                  (     0          0         -1      )

 cart.    s(25) = ( -1.0000000  0.0000000  0.0000000 )
                  (  0.0000000 -1.0000000  0.0000000 )
                  (  0.0000000  0.0000000 -1.0000000 )


      isym = 26     inv. 180 deg rotation - cart. axis [0,0,1]   

 cryst.   s(26) = (     1          0          0      )
                  (     1          0         -1      )
                  (     1         -1          0      )

 cart.    s(26) = (  1.0000000  0.0000000  0.0000000 )
                  (  0.0000000  1.0000000  0.0000000 )
                  (  0.0000000  0.0000000 -1.0000000 )


      isym = 27     inv. 180 deg rotation - cart. axis [0,1,0]   

 cryst.   s(27) = (     0          1         -1      )
                  (     0          1          0      )
                  (    -1          1          0      )

 cart.    s(27) = (  1.0000000  0.0000000  0.0000000 )
                  (  0.0000000 -1.0000000  0.0000000 )
                  (  0.0000000  0.0000000  1.0000000 )


      isym = 28     inv. 180 deg rotation - cart. axis [1,0,0]   

 cryst.   s(28) = (     0         -1          1      )
                  (    -1          0          1      )
                  (     0          0          1      )

 cart.    s(28) = ( -1.0000000  0.0000000  0.0000000 )
                  (  0.0000000  1.0000000  0.0000000 )
                  (  0.0000000  0.0000000  1.0000000 )


      isym = 29     inv. 180 deg rotation - cart. axis [1,1,0]   

 cryst.   s(29) = (    -1          0          0      )
                  (    -1          1          0      )
                  (    -1          0          1      )

 cart.    s(29) = (  0.0000000 -1.0000000  0.0000000 )
                  ( -1.0000000  0.0000000  0.0000000 )
                  (  0.0000000  0.0000000  1.0000000 )


      isym = 30     inv. 180 deg rotation - cart. axis [1,-1,0]  

 cryst.   s(30) = (     1          0          0      )
                  (     0          0          1      )
                  (     0          1          0      )

 cart.    s(30) = (  0.0000000  1.0000000  0.0000000 )
                  (  1.0000000  0.0000000  0.0000000 )
                  (  0.0000000  0.0000000  1.0000000 )


      isym = 31     inv.  90 deg rotation - cart. axis [0,0,-1]  

 cryst.   s(31) = (     0         -1          1      )
                  (     1         -1          0      )
                  (     0         -1          0      )

 cart.    s(31) = (  0.0000000 -1.0000000  0.0000000 )
                  (  1.0000000  0.0000000  0.0000000 )
                  (  0.0000000  0.0000000 -1.0000000 )


      isym = 32     inv.  90 deg rotation - cart. axis [0,0,1]   

 cryst.   s(32) = (     0          1         -1      )
                  (     0          0         -1      )
                  (     1          0         -1      )

 cart.    s(32) = (  0.0000000  1.0000000  0.0000000 )
                  ( -1.0000000  0.0000000  0.0000000 )
                  (  0.0000000  0.0000000 -1.0000000 )


      isym = 33     inv. 180 deg rotation - cart. axis [1,0,1]   

 cryst.   s(33) = (     1         -1          0      )
                  (     0         -1          0      )
                  (     0         -1          1      )

 cart.    s(33) = (  0.0000000  0.0000000 -1.0000000 )
                  (  0.0000000  1.0000000  0.0000000 )
                  ( -1.0000000  0.0000000  0.0000000 )


      isym = 34     inv. 180 deg rotation - cart. axis [-1,0,1]  

 cryst.   s(34) = (     0          0          1      )
                  (     0          1          0      )
                  (     1          0          0      )

 cart.    s(34) = (  0.0000000  0.0000000  1.0000000 )
                  (  0.0000000  1.0000000  0.0000000 )
                  (  1.0000000  0.0000000  0.0000000 )


      isym = 35     inv.  90 deg rotation - cart. axis [0,1,0]   

 cryst.   s(35) = (    -1          1          0      )
                  (    -1          0          1      )
                  (    -1          0          0      )

 cart.    s(35) = (  0.0000000  0.0000000 -1.0000000 )
                  (  0.0000000 -1.0000000  0.0000000 )
                  (  1.0000000  0.0000000  0.0000000 )


      isym = 36     inv.  90 deg rotation - cart. axis [0,-1,0]  

 cryst.   s(36) = (     0          0         -1      )
                  (     1          0         -1      )
                  (     0          1         -1      )

 cart.    s(36) = (  0.0000000  0.0000000  1.0000000 )
                  (  0.0000000 -1.0000000  0.0000000 )
                  ( -1.0000000  0.0000000  0.0000000 )


      isym = 37     inv. 180 deg rotation - cart. axis [0,1,1]   

 cryst.   s(37) = (     1          0         -1      )
                  (     0          1         -1      )
                  (     0          0         -1      )

 cart.    s(37) = (  1.0000000  0.0000000  0.0000000 )
                  (  0.0000000  0.0000000 -1.0000000 )
                  (  0.0000000 -1.0000000  0.0000000 )


      isym = 38     inv. 180 deg rotation - cart. axis [0,1,-1]  

 cryst.   s(38) = (     0          1          0      )
                  (     1          0          0      )
                  (     0          0          1      )

 cart.    s(38) = (  1.0000000  0.0000000  0.0000000 )
                  (  0.0000000  0.0000000  1.0000000 )
                  (  0.0000000  1.0000000  0.0000000 )


      isym = 39     inv.  90 deg rotation - cart. axis [-1,0,0]  

 cryst.   s(39) = (    -1          0          1      )
                  (    -1          0          0      )
                  (    -1          1          0      )

 cart.    s(39) = ( -1.0000000  0.0000000  0.0000000 )
                  (  0.0000000  0.0000000 -1.0000000 )
                  (  0.0000000  1.0000000  0.0000000 )


      isym = 40     inv.  90 deg rotation - cart. axis [1,0,0]   

 cryst.   s(40) = (     0         -1          0      )
                  (     0         -1          1      )
                  (     1         -1          0      )

 cart.    s(40) = ( -1.0000000  0.0000000  0.0000000 )
                  (  0.0000000  0.0000000  1.0000000 )
                  (  0.0000000 -1.0000000  0.0000000 )


      isym = 41     inv. 120 deg rotation - cart. axis [-1,-1,-1]

 cryst.   s(41) = (     0         -1          0      )
                  (     0          0         -1      )
                  (    -1          0          0      )

 cart.    s(41) = (  0.0000000 -1.0000000  0.0000000 )
                  (  0.0000000  0.0000000 -1.0000000 )
                  ( -1.0000000  0.0000000  0.0000000 )


      isym = 42     inv. 120 deg rotation - cart. axis [-1,1,1]  

 cryst.   s(42) = (     0          1          0      )
                  (    -1          1          0      )
                  (     0          1         -1      )

 cart.    s(42) = (  0.0000000  1.0000000  0.0000000 )
                  (  0.0000000  0.0000000 -1.0000000 )
                  (  1.0000000  0.0000000  0.0000000 )


      isym = 43     inv. 120 deg rotation - cart. axis [1,1,-1]  

 cryst.   s(43) = (    -1          0          1      )
                  (     0          0          1      )
                  (     0         -1          1      )

 cart.    s(43) = (  0.0000000 -1.0000000  0.0000000 )
                  (  0.0000000  0.0000000  1.0000000 )
                  (  1.0000000  0.0000000  0.0000000 )


      isym = 44     inv. 120 deg rotation - cart. axis [1,-1,1]  

 cryst.   s(44) = (     1          0         -1      )
                  (     1         -1          0      )
                  (     1          0          0      )

 cart.    s(44) = (  0.0000000  1.0000000  0.0000000 )
                  (  0.0000000  0.0000000  1.0000000 )
                  ( -1.0000000  0.0000000  0.0000000 )


      isym = 45     inv. 120 deg rotation - cart. axis [1,1,1]   

 cryst.   s(45) = (     0          0         -1      )
                  (    -1          0          0      )
                  (     0         -1          0      )

 cart.    s(45) = (  0.0000000  0.0000000 -1.0000000 )
                  ( -1.0000000  0.0000000  0.0000000 )
                  (  0.0000000 -1.0000000  0.0000000 )


      isym = 46     inv. 120 deg rotation - cart. axis [-1,1,-1] 

 cryst.   s(46) = (     0          0          1      )
                  (     0         -1          1      )
                  (    -1          0          1      )

 cart.    s(46) = (  0.0000000  0.0000000 -1.0000000 )
                  (  1.0000000  0.0000000  0.0000000 )
                  (  0.0000000  1.0000000  0.0000000 )


      isym = 47     inv. 120 deg rotation - cart. axis [1,-1,-1] 

 cryst.   s(47) = (     1         -1          0      )
                  (     1          0          0      )
                  (     1          0         -1      )

 cart.    s(47) = (  0.0000000  0.0000000  1.0000000 )
                  (  1.0000000  0.0000000  0.0000000 )
                  (  0.0000000 -1.0000000  0.0000000 )


      isym = 48     inv. 120 deg rotation - cart. axis [-1,-1,1] 

 cryst.   s(48) = (    -1          1          0      )
                  (     0          1         -1      )
                  (     0          1          0      )

 cart.    s(48) = (  0.0000000  0.0000000  1.0000000 )
                  ( -1.0000000  0.0000000  0.0000000 )
                  (  0.0000000  1.0000000  0.0000000 )


   Cartesian axes

     site n.     atom                  positions (alat units)
         1           Al  tau(   1) = (   0.0000000   0.0000000   0.0000000  )

   Crystallographic axes

     site n.     atom                  positions (cryst. coord.)
         1           Al  tau(   1) = (  0.0000000  0.0000000  0.0000000  )

     number of k points=   104  Marzari-Vanderbilt smearing, width (Ry)=  0.0147
                       cart. coord. in units 2pi/alat
        k(    1) = (   0.0000000   0.0000000   0.0000000), wk =   0.0007289
        k(    2) = (  -0.0505076   0.0505076   0.0505076), wk =   0.0058309
        k(    3) = (  -0.1010153   0.1010153   0.1010153), wk =   0.0058309
        k(    4) = (  -0.1515229   0.1515229   0.1515229), wk =   0.0058309
        k(    5) = (  -0.2020305   0.2020305   0.2020305), wk =   0.0058309
        k(    6) = (  -0.2525381   0.2525381   0.2525381), wk =   0.0058309
        k(    7) = (  -0.3030458   0.3030458   0.3030458), wk =   0.0058309
        k(    8) = (   0.3535534  -0.3535534  -0.3535534), wk =   0.0029155
        k(    9) = (   0.0000000   0.0000000   0.1010153), wk =   0.0043732
        k(   10) = (  -0.0505076   0.0505076   0.1515229), wk =   0.0174927
        k(   11) = (  -0.1010153   0.1010153   0.2020305), wk =   0.0174927
        k(   12) = (  -0.1515229   0.1515229   0.2525381), wk =   0.0174927
        k(   13) = (  -0.2020305   0.2020305   0.3030458), wk =   0.0174927
        k(   14) = (  -0.2525381   0.2525381   0.3535534), wk =   0.0174927
        k(   15) = (   0.4040610  -0.4040610  -0.3030458), wk =   0.0174927
        k(   16) = (   0.3535534  -0.3535534  -0.2525381), wk =   0.0174927
        k(   17) = (   0.3030458  -0.3030458  -0.2020305), wk =   0.0174927
        k(   18) = (   0.2525381  -0.2525381  -0.1515229), wk =   0.0174927
        k(   19) = (   0.2020305  -0.2020305  -0.1010153), wk =   0.0174927
        k(   20) = (   0.1515229  -0.1515229  -0.0505076), wk =   0.0174927
        k(   21) = (   0.1010153  -0.1010153   0.0000000), wk =   0.0087464
        k(   22) = (   0.0000000   0.0000000   0.2020305), wk =   0.0043732
        k(   23) = (  -0.0505076   0.0505076   0.2525381), wk =   0.0174927
        k(   24) = (  -0.1010153   0.1010153   0.3030458), wk =   0.0174927
        k(   25) = (  -0.1515229   0.1515229   0.3535534), wk =   0.0174927
        k(   26) = (  -0.2020305   0.2020305   0.4040610), wk =   0.0174927
        k(   27) = (   0.4545686  -0.4545686  -0.2525381), wk =   0.0174927
        k(   28) = (   0.4040610  -0.4040610  -0.2020305), wk =   0.0174927
        k(   29) = (   0.3535534  -0.3535534  -0.1515229), wk =   0.0174927
        k(   30) = (   0.3030458  -0.3030458  -0.1010153), wk =   0.0174927
        k(   31) = (   0.2525381  -0.2525381  -0.0505076), wk =   0.0174927
        k(   32) = (   0.2020305  -0.2020305  -0.0000000), wk =   0.0087464
        k(   33) = (   0.0000000   0.0000000   0.3030458), wk =   0.0043732
        k(   34) = (  -0.0505076   0.0505076   0.3535534), wk =   0.0174927
        k(   35) = (  -0.1010153   0.1010153   0.4040610), wk =   0.0174927
        k(   36) = (  -0.1515229   0.1515229   0.4545686), wk =   0.0174927
        k(   37) = (   0.5050763  -0.5050763  -0.2020305), wk =   0.0174927
        k(   38) = (   0.4545686  -0.4545686  -0.1515229), wk =   0.0174927
        k(   39) = (   0.4040610  -0.4040610  -0.1010153), wk =   0.0174927
        k(   40) = (   0.3535534  -0.3535534  -0.0505076), wk =   0.0174927
        k(   41) = (   0.3030458  -0.3030458   0.0000000), wk =   0.0087464
        k(   42) = (   0.0000000   0.0000000   0.4040610), wk =   0.0043732
        k(   43) = (  -0.0505076   0.0505076   0.4545686), wk =   0.0174927
        k(   44) = (  -0.1010153   0.1010153   0.5050763), wk =   0.0174927
        k(   45) = (   0.5555839  -0.5555839  -0.1515229), wk =   0.0174927
        k(   46) = (   0.5050763  -0.5050763  -0.1010153), wk =   0.0174927
        k(   47) = (   0.4545686  -0.4545686  -0.0505076), wk =   0.0174927
        k(   48) = (   0.4040610  -0.4040610   0.0000000), wk =   0.0087464
        k(   49) = (   0.0000000   0.0000000   0.5050763), wk =   0.0043732
        k(   50) = (  -0.0505076   0.0505076   0.5555839), wk =   0.0174927
        k(   51) = (   0.6060915  -0.6060915  -0.1010153), wk =   0.0174927
        k(   52) = (   0.5555839  -0.5555839  -0.0505076), wk =   0.0174927
        k(   53) = (   0.5050763  -0.5050763   0.0000000), wk =   0.0087464
        k(   54) = (   0.0000000   0.0000000   0.6060915), wk =   0.0043732
        k(   55) = (   0.6565992  -0.6565992  -0.0505076), wk =   0.0174927
        k(   56) = (   0.6060915  -0.6060915   0.0000000), wk =   0.0087464
        k(   57) = (   0.0000000   0.0000000  -0.7071068), wk =   0.0021866
        k(   58) = (   0.0000000   0.1010153   0.2020305), wk =   0.0174927
        k(   59) = (  -0.0505076   0.1515229   0.2525381), wk =   0.0349854
        k(   60) = (  -0.1010153   0.2020305   0.3030458), wk =   0.0349854
        k(   61) = (  -0.1515229   0.2525381   0.3535534), wk =   0.0349854
        k(   62) = (   0.5050763  -0.4040610  -0.3030458), wk =   0.0349854
        k(   63) = (   0.4545686  -0.3535534  -0.2525381), wk =   0.0174927
        k(   64) = (   0.0000000   0.1010153   0.3030458), wk =   0.0174927
        k(   65) = (  -0.0505076   0.1515229   0.3535534), wk =   0.0349854
        k(   66) = (  -0.1010153   0.2020305   0.4040610), wk =   0.0349854
        k(   67) = (   0.5555839  -0.4545686  -0.2525381), wk =   0.0349854
        k(   68) = (   0.5050763  -0.4040610  -0.2020305), wk =   0.0349854
        k(   69) = (   0.4545686  -0.3535534  -0.1515229), wk =   0.0349854
        k(   70) = (   0.4040610  -0.3030458  -0.1010153), wk =   0.0349854
        k(   71) = (   0.3535534  -0.2525381  -0.0505076), wk =   0.0349854
        k(   72) = (   0.3030458  -0.2020305  -0.0000000), wk =   0.0174927
        k(   73) = (   0.0000000   0.1010153   0.4040610), wk =   0.0174927
        k(   74) = (  -0.0505076   0.1515229   0.4545686), wk =   0.0349854
        k(   75) = (   0.6060915  -0.5050763  -0.2020305), wk =   0.0349854
        k(   76) = (   0.5555839  -0.4545686  -0.1515229), wk =   0.0349854
        k(   77) = (   0.5050763  -0.4040610  -0.1010153), wk =   0.0349854
        k(   78) = (   0.4545686  -0.3535534  -0.0505076), wk =   0.0349854
        k(   79) = (   0.4040610  -0.3030458   0.0000000), wk =   0.0174927
        k(   80) = (   0.0000000   0.1010153   0.5050763), wk =   0.0174927
        k(   81) = (   0.6565992  -0.5555839  -0.1515229), wk =   0.0349854
        k(   82) = (   0.6060915  -0.5050763  -0.1010153), wk =   0.0349854
        k(   83) = (   0.5555839  -0.4545686  -0.0505076), wk =   0.0349854
        k(   84) = (   0.5050763  -0.4040610   0.0000000), wk =   0.0174927
        k(   85) = (   0.7071068  -0.6060915  -0.1010153), wk =   0.0174927
        k(   86) = (   0.6565992  -0.5555839  -0.0505076), wk =   0.0349854
        k(   87) = (   0.6060915  -0.5050763   0.0000000), wk =   0.0174927
        k(   88) = (   0.0000000   0.1010153  -0.7071068), wk =   0.0087464
        k(   89) = (   0.0000000   0.2020305   0.4040610), wk =   0.0174927
        k(   90) = (   0.6565992  -0.4545686  -0.2525381), wk =   0.0349854
        k(   91) = (   0.6060915  -0.4040610  -0.2020305), wk =   0.0349854
        k(   92) = (   0.5555839  -0.3535534  -0.1515229), wk =   0.0174927
        k(   93) = (   0.7071068  -0.5050763  -0.2020305), wk =   0.0174927
        k(   94) = (   0.6565992  -0.4545686  -0.1515229), wk =   0.0349854
        k(   95) = (   0.6060915  -0.4040610  -0.1010153), wk =   0.0349854
        k(   96) = (   0.5555839  -0.3535534  -0.0505076), wk =   0.0349854
        k(   97) = (   0.5050763  -0.3030458   0.0000000), wk =   0.0174927
        k(   98) = (   0.7071068  -0.5050763  -0.1010153), wk =   0.0174927
        k(   99) = (   0.6565992  -0.4545686  -0.0505076), wk =   0.0349854
        k(  100) = (   0.6060915  -0.4040610   0.0000000), wk =   0.0174927
        k(  101) = (  -0.0000000   0.2020305  -0.7071068), wk =   0.0087464
        k(  102) = (   0.7071068  -0.4040610  -0.1010153), wk =   0.0174927
        k(  103) = (   0.6565992  -0.3535534  -0.0505076), wk =   0.0174927
        k(  104) = (   0.0000000   0.3030458  -0.7071068), wk =   0.0087464

                       cryst. coord.
        k(    1) = (   0.0000000   0.0000000   0.0000000), wk =   0.0007289
        k(    2) = (   0.0000000   0.0000000   0.0714286), wk =   0.0058309
        k(    3) = (   0.0000000   0.0000000   0.1428571), wk =   0.0058309
        k(    4) = (   0.0000000   0.0000000   0.2142857), wk =   0.0058309
        k(    5) = (   0.0000000   0.0000000   0.2857143), wk =   0.0058309
        k(    6) = (   0.0000000   0.0000000   0.3571429), wk =   0.0058309
        k(    7) = (   0.0000000   0.0000000   0.4285714), wk =   0.0058309
        k(    8) = (   0.0000000   0.0000000  -0.5000000), wk =   0.0029155
        k(    9) = (   0.0000000   0.0714286   0.0714286), wk =   0.0043732
        k(   10) = (   0.0000000   0.0714286   0.1428571), wk =   0.0174927
        k(   11) = (   0.0000000   0.0714286   0.2142857), wk =   0.0174927
        k(   12) = (   0.0000000   0.0714286   0.2857143), wk =   0.0174927
        k(   13) = (   0.0000000   0.0714286   0.3571429), wk =   0.0174927
        k(   14) = (   0.0000000   0.0714286   0.4285714), wk =   0.0174927
        k(   15) = (   0.0000000   0.0714286  -0.5000000), wk =   0.0174927
        k(   16) = (   0.0000000   0.0714286  -0.4285714), wk =   0.0174927
        k(   17) = (   0.0000000   0.0714286  -0.3571429), wk =   0.0174927
        k(   18) = (   0.0000000   0.0714286  -0.2857143), wk =   0.0174927
        k(   19) = (   0.0000000   0.0714286  -0.2142857), wk =   0.0174927
        k(   20) = (   0.0000000   0.0714286  -0.1428571), wk =   0.0174927
        k(   21) = (   0.0000000   0.0714286  -0.0714286), wk =   0.0087464
        k(   22) = (   0.0000000   0.1428571   0.1428571), wk =   0.0043732
        k(   23) = (   0.0000000   0.1428571   0.2142857), wk =   0.0174927
        k(   24) = (   0.0000000   0.1428571   0.2857143), wk =   0.0174927
        k(   25) = (   0.0000000   0.1428571   0.3571429), wk =   0.0174927
        k(   26) = (   0.0000000   0.1428571   0.4285714), wk =   0.0174927
        k(   27) = (   0.0000000   0.1428571  -0.5000000), wk =   0.0174927
        k(   28) = (   0.0000000   0.1428571  -0.4285714), wk =   0.0174927
        k(   29) = (   0.0000000   0.1428571  -0.3571429), wk =   0.0174927
        k(   30) = (   0.0000000   0.1428571  -0.2857143), wk =   0.0174927
        k(   31) = (   0.0000000   0.1428571  -0.2142857), wk =   0.0174927
        k(   32) = (   0.0000000   0.1428571  -0.1428571), wk =   0.0087464
        k(   33) = (   0.0000000   0.2142857   0.2142857), wk =   0.0043732
        k(   34) = (   0.0000000   0.2142857   0.2857143), wk =   0.0174927
        k(   35) = (   0.0000000   0.2142857   0.3571429), wk =   0.0174927
        k(   36) = (   0.0000000   0.2142857   0.4285714), wk =   0.0174927
        k(   37) = (   0.0000000   0.2142857  -0.5000000), wk =   0.0174927
        k(   38) = (   0.0000000   0.2142857  -0.4285714), wk =   0.0174927
        k(   39) = (   0.0000000   0.2142857  -0.3571429), wk =   0.0174927
        k(   40) = (   0.0000000   0.2142857  -0.2857143), wk =   0.0174927
        k(   41) = (   0.0000000   0.2142857  -0.2142857), wk =   0.0087464
        k(   42) = (   0.0000000   0.2857143   0.2857143), wk =   0.0043732
        k(   43) = (   0.0000000   0.2857143   0.3571429), wk =   0.0174927
        k(   44) = (   0.0000000   0.2857143   0.4285714), wk =   0.0174927
        k(   45) = (   0.0000000   0.2857143  -0.5000000), wk =   0.0174927
        k(   46) = (   0.0000000   0.2857143  -0.4285714), wk =   0.0174927
        k(   47) = (   0.0000000   0.2857143  -0.3571429), wk =   0.0174927
        k(   48) = (   0.0000000   0.2857143  -0.2857143), wk =   0.0087464
        k(   49) = (   0.0000000   0.3571429   0.3571429), wk =   0.0043732
        k(   50) = (   0.0000000   0.3571429   0.4285714), wk =   0.0174927
        k(   51) = (   0.0000000   0.3571429  -0.5000000), wk =   0.0174927
        k(   52) = (   0.0000000   0.3571429  -0.4285714), wk =   0.0174927
        k(   53) = (   0.0000000   0.3571429  -0.3571429), wk =   0.0087464
        k(   54) = (   0.0000000   0.4285714   0.4285714), wk =   0.0043732
        k(   55) = (   0.0000000   0.4285714  -0.5000000), wk =   0.0174927
        k(   56) = (   0.0000000   0.4285714  -0.4285714), wk =   0.0087464
        k(   57) = (   0.0000000  -0.5000000  -0.5000000), wk =   0.0021866
        k(   58) = (   0.0714286   0.1428571   0.2142857), wk =   0.0174927
        k(   59) = (   0.0714286   0.1428571   0.2857143), wk =   0.0349854
        k(   60) = (   0.0714286   0.1428571   0.3571429), wk =   0.0349854
        k(   61) = (   0.0714286   0.1428571   0.4285714), wk =   0.0349854
        k(   62) = (   0.0714286   0.1428571  -0.5000000), wk =   0.0349854
        k(   63) = (   0.0714286   0.1428571  -0.4285714), wk =   0.0174927
        k(   64) = (   0.0714286   0.2142857   0.2857143), wk =   0.0174927
        k(   65) = (   0.0714286   0.2142857   0.3571429), wk =   0.0349854
        k(   66) = (   0.0714286   0.2142857   0.4285714), wk =   0.0349854
        k(   67) = (   0.0714286   0.2142857  -0.5000000), wk =   0.0349854
        k(   68) = (   0.0714286   0.2142857  -0.4285714), wk =   0.0349854
        k(   69) = (   0.0714286   0.2142857  -0.3571429), wk =   0.0349854
        k(   70) = (   0.0714286   0.2142857  -0.2857143), wk =   0.0349854
        k(   71) = (   0.0714286   0.2142857  -0.2142857), wk =   0.0349854
        k(   72) = (   0.0714286   0.2142857  -0.1428571), wk =   0.0174927
        k(   73) = (   0.0714286   0.2857143   0.3571429), wk =   0.0174927
        k(   74) = (   0.0714286   0.2857143   0.4285714), wk =   0.0349854
        k(   75) = (   0.0714286   0.2857143  -0.5000000), wk =   0.0349854
        k(   76) = (   0.0714286   0.2857143  -0.4285714), wk =   0.0349854
        k(   77) = (   0.0714286   0.2857143  -0.3571429), wk =   0.0349854
        k(   78) = (   0.0714286   0.2857143  -0.2857143), wk =   0.0349854
        k(   79) = (   0.0714286   0.2857143  -0.2142857), wk =   0.0174927
        k(   80) = (   0.0714286   0.3571429   0.4285714), wk =   0.0174927
        k(   81) = (   0.0714286   0.3571429  -0.5000000), wk =   0.0349854
        k(   82) = (   0.0714286   0.3571429  -0.4285714), wk =   0.0349854
        k(   83) = (   0.0714286   0.3571429  -0.3571429), wk =   0.0349854
        k(   84) = (   0.0714286   0.3571429  -0.2857143), wk =   0.0174927
        k(   85) = (   0.0714286   0.4285714  -0.5000000), wk =   0.0174927
        k(   86) = (   0.0714286   0.4285714  -0.4285714), wk =   0.0349854
        k(   87) = (   0.0714286   0.4285714  -0.3571429), wk =   0.0174927
        k(   88) = (   0.0714286  -0.5000000  -0.4285714), wk =   0.0087464
        k(   89) = (   0.1428571   0.2857143   0.4285714), wk =   0.0174927
        k(   90) = (   0.1428571   0.2857143  -0.5000000), wk =   0.0349854
        k(   91) = (   0.1428571   0.2857143  -0.4285714), wk =   0.0349854
        k(   92) = (   0.1428571   0.2857143  -0.3571429), wk =   0.0174927
        k(   93) = (   0.1428571   0.3571429  -0.5000000), wk =   0.0174927
        k(   94) = (   0.1428571   0.3571429  -0.4285714), wk =   0.0349854
        k(   95) = (   0.1428571   0.3571429  -0.3571429), wk =   0.0349854
        k(   96) = (   0.1428571   0.3571429  -0.2857143), wk =   0.0349854
        k(   97) = (   0.1428571   0.3571429  -0.2142857), wk =   0.0174927
        k(   98) = (   0.1428571   0.4285714  -0.4285714), wk =   0.0174927
        k(   99) = (   0.1428571   0.4285714  -0.3571429), wk =   0.0349854
        k(  100) = (   0.1428571   0.4285714  -0.2857143), wk =   0.0174927
        k(  101) = (   0.1428571  -0.5000000  -0.3571429), wk =   0.0087464
        k(  102) = (   0.2142857   0.4285714  -0.3571429), wk =   0.0174927
        k(  103) = (   0.2142857   0.4285714  -0.2857143), wk =   0.0174927
        k(  104) = (   0.2142857  -0.5000000  -0.2857143), wk =   0.0087464

     Dense  grid:     6879 G-vectors     FFT dimensions: (  27,  27,  27)

     Smooth grid:     2445 G-vectors     FFT dimensions: (  20,  20,  20)

     Dynamical RAM for                 wfc:       0.03 MB

     Dynamical RAM for     wfc (w. buffer):       2.97 MB

     Dynamical RAM for           str. fact:       0.10 MB

     Dynamical RAM for           local pot:       0.00 MB

     Dynamical RAM for          nlocal pot:       0.08 MB

     Dynamical RAM for                qrad:       2.49 MB

     Dynamical RAM for          rho,v,vnew:       0.77 MB

     Dynamical RAM for               rhoin:       0.26 MB

     Dynamical RAM for            rho*nmix:       1.68 MB

     Dynamical RAM for           G-vectors:       0.41 MB

     Dynamical RAM for          h,s,v(r/c):       0.01 MB

     Dynamical RAM for          <psi|beta>:       0.00 MB

     Dynamical RAM for                 psi:       0.06 MB

     Dynamical RAM for                hpsi:       0.06 MB

     Dynamical RAM for                spsi:       0.06 MB

     Dynamical RAM for      wfcinit/wfcrot:       0.06 MB

     Dynamical RAM for           addusdens:      19.63 MB

     Dynamical RAM for          addusforce:      19.68 MB

     Dynamical RAM for         addusstress:      21.10 MB

     Estimated static dynamical RAM per process >       8.04 MB

     Estimated max dynamical RAM per process >      30.82 MB

     Initial potential from superposition of free atoms

     starting charge    2.99771, renormalised to    3.00000
     Starting wfcs are    4 randomized atomic wfcs +    2 random wfcs
     Checking if some PAW data can be deallocated... 

     total cpu time spent up to now is        1.0 secs

     Self-consistent Calculation

     iteration #  1     ecut=    30.00 Ry     beta= 0.40
     Davidson diagonalization with overlap

---- Real-time Memory Report at c_bands before calling an iterative solver
            56 MiB given to the printing process from OS
             0 MiB allocation reported by mallinfo(arena+hblkhd)
          2853 MiB available memory on the node where the printing process lives
------------------
     ethr =  1.00E-02,  avg # of iterations =  5.9

     Threshold (ethr) on eigenvalues was too large:
     Diagonalizing with lowered threshold

     Davidson diagonalization with overlap

---- Real-time Memory Report at c_bands before calling an iterative solver
            61 MiB given to the printing process from OS
             0 MiB allocation reported by mallinfo(arena+hblkhd)
          2834 MiB available memory on the node where the printing process lives
------------------
     ethr =  1.87E-04,  avg # of iterations =  3.2

     total cpu time spent up to now is        1.8 secs

     total energy              =     -39.50254833 Ry
     estimated scf accuracy    <       0.00551706 Ry

     iteration #  2     ecut=    30.00 Ry     beta= 0.40
     Davidson diagonalization with overlap

---- Real-time Memory Report at c_bands before calling an iterative solver
            62 MiB given to the printing process from OS
             0 MiB allocation reported by mallinfo(arena+hblkhd)
          2833 MiB available memory on the node where the printing process lives
------------------
     ethr =  1.84E-04,  avg # of iterations =  1.1

     total cpu time spent up to now is        2.2 secs

     total energy              =     -39.50210320 Ry
     estimated scf accuracy    <       0.00187304 Ry

     iteration #  3     ecut=    30.00 Ry     beta= 0.40
     Davidson diagonalization with overlap

---- Real-time Memory Report at c_bands before calling an iterative solver
            62 MiB given to the printing process from OS
             0 MiB allocation reported by mallinfo(arena+hblkhd)
          2857 MiB available memory on the node where the printing process lives
------------------
     ethr =  6.24E-05,  avg # of iterations =  1.4

     total cpu time spent up to now is        2.5 secs

     total energy              =     -39.50213222 Ry
     estimated scf accuracy    <       0.00000263 Ry

     iteration #  4     ecut=    30.00 Ry     beta= 0.40
     Davidson diagonalization with overlap

---- Real-time Memory Report at c_bands before calling an iterative solver
            62 MiB given to the printing process from OS
             0 MiB allocation reported by mallinfo(arena+hblkhd)
          2857 MiB available memory on the node where the printing process lives
------------------
     c_bands:  1 eigenvalues not converged
     ethr =  8.77E-08,  avg # of iterations =  4.2

     total cpu time spent up to now is        2.9 secs

     total energy              =     -39.50213291 Ry
     estimated scf accuracy    <       0.00000010 Ry

     iteration #  5     ecut=    30.00 Ry     beta= 0.40
     Davidson diagonalization with overlap

---- Real-time Memory Report at c_bands before calling an iterative solver
            62 MiB given to the printing process from OS
             0 MiB allocation reported by mallinfo(arena+hblkhd)
          2857 MiB available memory on the node where the printing process lives
------------------
     ethr =  3.24E-09,  avg # of iterations =  1.4

     total cpu time spent up to now is        3.3 secs

     total energy              =     -39.50213292 Ry
     estimated scf accuracy    <          2.2E-10 Ry

     iteration #  6     ecut=    30.00 Ry     beta= 0.40
     Davidson diagonalization with overlap

---- Real-time Memory Report at c_bands before calling an iterative solver
            62 MiB given to the printing process from OS
             0 MiB allocation reported by mallinfo(arena+hblkhd)
          2857 MiB available memory on the node where the printing process lives
------------------
     ethr =  7.50E-12,  avg # of iterations =  3.3

     total cpu time spent up to now is        3.7 secs

     End of self-consistent calculation

          k = 0.0000 0.0000 0.0000 (   331 PWs)   bands (ev):

    -3.2293  20.5297  20.5297  22.0348  22.0349  22.0349

     occupation numbers 
     1.0000   0.0000   0.0000   0.0000   0.0000   0.0000

          k =-0.0505 0.0505 0.0505 (   316 PWs)   bands (ev):

    -3.0904  18.4004  20.0765  20.0766  22.6941  22.7012

     occupation numbers 
     1.0000   0.0000   0.0000   0.0000   0.0000   0.0000

          k =-0.1010 0.1010 0.1010 (   310 PWs)   bands (ev):

    -2.6747  15.5153  19.4458  19.4458  22.6055  23.8178

     occupation numbers 
     1.0000   0.0000   0.0000   0.0000   0.0000   0.0000

          k =-0.1515 0.1515 0.1515 (   311 PWs)   bands (ev):

    -1.9847  12.7029  18.9810  18.9810  22.3790  23.3115

     occupation numbers 
     1.0000   0.0000   0.0000   0.0000   0.0000   0.0000

          k =-0.2020 0.2020 0.2020 (   305 PWs)   bands (ev):

    -1.0242  10.0604  18.7310  18.7310  22.0465  22.0471

     occupation numbers 
     1.0000   0.0000   0.0000   0.0000   0.0000   0.0000

          k =-0.2525 0.2525 0.2525 (   308 PWs)   bands (ev):

     0.2013   7.6229  18.7076  18.7076  20.9301  20.9301

     occupation numbers 
     1.0000   1.0821   0.0000   0.0000   0.0000   0.0000

          k =-0.3030 0.3030 0.3030 (   314 PWs)   bands (ev):

     1.6848   5.4090  18.9149  18.9149  20.0285  20.0285

     occupation numbers 
     1.0000   1.0000   0.0000   0.0000   0.0000   0.0000

          k = 0.3536-0.3536-0.3536 (   302 PWs)   bands (ev):

     3.3165   3.5335  19.3372  19.3372  19.3737  19.3737

     occupation numbers 
     1.0000   1.0000   0.0000   0.0000   0.0000   0.0000

          k = 0.0000 0.0000 0.1010 (   315 PWs)   bands (ev):

    -3.0442  19.1150  19.1150  19.4074  21.6029  23.7177

     occupation numbers 
     1.0000   0.0000   0.0000   0.0000   0.0000   0.0000

          k =-0.0505 0.0505 0.1515 (   311 PWs)   bands (ev):

    -2.7209  16.5319  18.3285  19.4928  21.8767  23.5633

     occupation numbers 
     1.0000   0.0000   0.0000   0.0000   0.0000   0.0000

          k =-0.1010 0.1010 0.2020 (   315 PWs)   bands (ev):

    -2.1224  13.7139  17.7604  19.1823  21.7323  23.3388

     occupation numbers 
     1.0000   0.0000   0.0000   0.0000   0.0000   0.0000

          k =-0.1515 0.1515 0.2525 (   307 PWs)   bands (ev):

    -1.2523  11.0234  17.4209  18.9130  20.3355  23.7296

     occupation numbers 
     1.0000   0.0000   0.0000   0.0000   0.0000   0.0000

          k =-0.2020 0.2020 0.3030 (   304 PWs)   bands (ev):

    -0.1155   8.5218  17.3136  18.8243  19.1173  22.8495

     occupation numbers 
     1.0000   0.0000   0.0000   0.0000   0.0000   0.0000

          k =-0.2525 0.2525 0.3536 (   309 PWs)   bands (ev):

     1.2817   6.2356  17.4401  18.0901  18.9961  21.8900

     occupation numbers 
     1.0000   1.0000   0.0000   0.0000   0.0000   0.0000

          k = 0.4041-0.4041-0.3030 (   315 PWs)   bands (ev):

     2.9264   4.1854  17.3217  17.8015  19.3818  21.1477

     occupation numbers 
     1.0000   1.0000   0.0000   0.0000   0.0000   0.0000

          k = 0.3536-0.3536-0.2525 (   307 PWs)   bands (ev):

     2.3530   4.8397  16.7917  18.3978  20.0076  20.6332

     occupation numbers 
     1.0000   1.0000   0.0000   0.0000   0.0000   0.0000

          k = 0.3030-0.3030-0.2020 (   309 PWs)   bands (ev):

     0.7876   6.9716  16.5033  19.2247  20.3518  20.8657

     occupation numbers 
     1.0000   1.0000   0.0000   0.0000   0.0000   0.0000

          k = 0.2525-0.2525-0.1515 (   305 PWs)   bands (ev):

    -0.5237   9.3301  16.4579  20.1664  20.4112  21.9409

     occupation numbers 
     1.0000   0.0000   0.0000   0.0000   0.0000   0.0000

          k = 0.2020-0.2020-0.1010 (   308 PWs)   bands (ev):

    -1.5722  11.8934  16.6565  20.4187  21.5782  23.0980

     occupation numbers 
     1.0000   0.0000   0.0000   0.0000   0.0000   0.0000

          k = 0.1515-0.1515-0.0505 (   312 PWs)   bands (ev):

    -2.3523  14.6139  17.1100  20.7511  22.7135  23.2953

     occupation numbers 
     1.0000   0.0000   0.0000   0.0000   0.0000   0.0000

          k = 0.1010-0.1010 0.0000 (   315 PWs)   bands (ev):

    -2.8593  17.1878  18.0237  20.8906  22.2524  23.1854

     occupation numbers 
     1.0000   0.0000   0.0000   0.0000   0.0000   0.0000

          k = 0.0000 0.0000 0.2020 (   307 PWs)   bands (ev):

    -2.4904  17.4361  17.4361  17.6449  20.6027  21.6303

     occupation numbers 
     1.0000   0.0000   0.0000   0.0000   0.0000   0.0000

          k =-0.0505 0.0505 0.2525 (   308 PWs)   bands (ev):

    -1.9846  14.8870  16.7765  18.0135  19.8324  20.8375

     occupation numbers 
     1.0000   0.0000   0.0000   0.0000   0.0000   0.0000

          k =-0.1010 0.1010 0.3030 (   306 PWs)   bands (ev):

    -1.2067  12.2020  16.3514  17.8851  18.3066  22.1883

     occupation numbers 
     1.0000   0.0000   0.0000   0.0000   0.0000   0.0000

          k =-0.1515 0.1515 0.3536 (   307 PWs)   bands (ev):

    -0.1610   9.6586  16.1615  16.8877  17.8643  23.9810

     occupation numbers 
     1.0000   0.0000   0.0000   0.0000   0.0000   0.0000

          k =-0.2020 0.2020 0.4041 (   307 PWs)   bands (ev):

     1.1465   7.3121  15.7865  16.2071  17.9500  23.9729

     occupation numbers 
     1.0000   1.0023   0.0000   0.0000   0.0000   0.0000

          k = 0.4546-0.4546-0.2525 (   307 PWs)   bands (ev):

     2.7065   5.1886  14.9201  16.4887  18.2772  23.1711

     occupation numbers 
     1.0000   1.0000   0.0000   0.0000   0.0000   0.0000

          k = 0.4041-0.4041-0.2020 (   303 PWs)   bands (ev):

     3.2787   4.5342  14.3004  17.0067  18.8499  22.5868

     occupation numbers 
     1.0000   1.0000   0.0000   0.0000   0.0000   0.0000

          k = 0.3536-0.3536-0.1515 (   310 PWs)   bands (ev):

     1.6397   6.5710  13.9337  17.7604  19.6644  22.2270

     occupation numbers 
     1.0000   1.0000   0.0000   0.0000   0.0000   0.0000

          k = 0.3030-0.3030-0.1010 (   311 PWs)   bands (ev):

     0.2463   8.8319  13.8298  18.7463  20.7085  22.0887

     occupation numbers 
     1.0000   0.0000   0.0000   0.0000   0.0000   0.0000

          k = 0.2525-0.2525-0.0505 (   311 PWs)   bands (ev):

    -0.8875  11.2582  14.0245  19.9517  21.9575  22.1347

     occupation numbers 
     1.0000   0.0000   0.0000   0.0000   0.0000   0.0000

          k = 0.2020-0.2020-0.0000 (   311 PWs)   bands (ev):

    -1.7554  13.4983  14.8359  21.3256  21.9695  23.3483

     occupation numbers 
     1.0000   0.0000   0.0000   0.0000   0.0000   0.0000

          k = 0.0000 0.0000 0.3030 (   303 PWs)   bands (ev):

    -1.5722  16.0306  16.0306  16.0698  17.9510  19.4724

     occupation numbers 
     1.0000   0.0000   0.0000   0.0000   0.0000   0.0000

          k =-0.0505 0.0505 0.3536 (   309 PWs)   bands (ev):

    -0.8877  13.5443  15.5223  16.2392  16.7339  19.7275

     occupation numbers 
     1.0000   0.0000   0.0000   0.0000   0.0000   0.0000

          k =-0.1010 0.1010 0.4041 (   308 PWs)   bands (ev):

     0.0650  11.0110  14.8084  15.2508  16.8079  21.2101

     occupation numbers 
     1.0000   0.0000   0.0000   0.0000   0.0000   0.0000

          k =-0.1515 0.1515 0.4546 (   316 PWs)   bands (ev):

     1.2798   8.6256  13.6011  15.2158  16.8850  23.2035

     occupation numbers 
     1.0000   0.0000   0.0000   0.0000   0.0000   0.0000

          k = 0.5051-0.5051-0.2020 (   311 PWs)   bands (ev):

     2.7483   6.4431  12.6394  15.4171  17.1557  25.3523

     occupation numbers 
     1.0000   1.0000   0.0000   0.0000   0.0000   0.0000

          k = 0.4546-0.4546-0.1515 (   303 PWs)   bands (ev):

     4.3422   4.6047  11.9330  15.8553  17.6643  24.7657

     occupation numbers 
     1.0000   1.0000   0.0000   0.0000   0.0000   0.0000

          k = 0.4041-0.4041-0.1010 (   301 PWs)   bands (ev):

     2.7520   6.4152  11.4963  16.5305  18.4175  24.3369

     occupation numbers 
     1.0000   1.0000   0.0000   0.0000   0.0000   0.0000

          k = 0.3536-0.3536-0.0505 (   310 PWs)   bands (ev):

     1.2813   8.5261  11.3769  17.4421  19.4064  24.1097

     occupation numbers 
     1.0000   0.0000   0.0000   0.0000   0.0000   0.0000

          k = 0.3030-0.3030 0.0000 (   307 PWs)   bands (ev):

     0.0655  10.4323  11.9381  18.5867  20.6070  23.7532

     occupation numbers 
     1.0000   0.0000   0.0000   0.0000   0.0000   0.0000

          k = 0.0000 0.0000 0.4041 (   311 PWs)   bands (ev):

    -0.2973  14.4720  14.8119  14.9323  14.9323  18.4458

     occupation numbers 
     1.0000   0.0000   0.0000   0.0000   0.0000   0.0000

          k =-0.0505 0.0505 0.4546 (   314 PWs)   bands (ev):

     0.5606  12.4983  12.9507  14.5800  15.6867  18.8266

     occupation numbers 
     1.0000   0.0000   0.0000   0.0000   0.0000   0.0000

          k =-0.1010 0.1010 0.5051 (   313 PWs)   bands (ev):

     1.6800  10.1424  11.6324  14.4646  15.9461  20.4676

     occupation numbers 
     1.0000   0.0000   0.0000   0.0000   0.0000   0.0000

          k = 0.5556-0.5556-0.1515 (   307 PWs)   bands (ev):

     3.0515   7.9282  10.5742  14.5858  16.2008  22.6398

     occupation numbers 
     1.0000   0.2851   0.0000   0.0000   0.0000   0.0000

          k = 0.5051-0.5051-0.1010 (   304 PWs)   bands (ev):

     4.6501   5.9250   9.7868  14.9437  16.6511  25.0261

     occupation numbers 
     1.0000   1.0000   0.0000   0.0000   0.0000   0.0000

          k = 0.4546-0.4546-0.0505 (   309 PWs)   bands (ev):

     4.1160   6.4640   9.3196  15.5389  17.3384  26.6574

     occupation numbers 
     1.0000   1.0000   0.0000   0.0000   0.0000   0.0000

          k = 0.4041-0.4041 0.0000 (   303 PWs)   bands (ev):

     2.5747   8.0457   9.5542  16.3719  18.2636  26.2095

     occupation numbers 
     1.0000   0.0634   0.0000   0.0000   0.0000   0.0000

          k = 0.0000 0.0000 0.5051 (   314 PWs)   bands (ev):

     1.3220  11.2604  13.9034  14.1475  14.1475  17.6516

     occupation numbers 
     1.0000   0.0000   0.0000   0.0000   0.0000   0.0000

          k =-0.0505 0.0505 0.5556 (   316 PWs)   bands (ev):

     2.3424   9.8497  11.8632  13.9521  14.9946  18.1939

     occupation numbers 
     1.0000   0.0000   0.0000   0.0000   0.0000   0.0000

          k = 0.6061-0.6061-0.1010 (   312 PWs)   bands (ev):

     3.6071   8.6832   9.6952  13.9933  15.4195  20.0067

     occupation numbers 
     1.0000   0.0000   0.0000   0.0000   0.0000   0.0000

          k = 0.5556-0.5556-0.0505 (   305 PWs)   bands (ev):

     5.0672   7.4740   8.0305  14.2711  15.8513  22.3481

     occupation numbers 
     1.0000   1.0338   0.0799   0.0000   0.0000   0.0000

          k = 0.5051-0.5051 0.0000 (   304 PWs)   bands (ev):

     5.7136   6.3449   7.8113  14.7860  16.4796  24.9055

     occupation numbers 
     1.0000   1.0000   0.6968   0.0000   0.0000   0.0000

          k = 0.0000 0.0000 0.6061 (   314 PWs)   bands (ev):

     3.2553   8.3673  13.3555  13.6770  13.6770  17.1536

     occupation numbers 
     1.0000   0.0000   0.0000   0.0000   0.0000   0.0000

          k = 0.6566-0.6566-0.0505 (   308 PWs)   bands (ev):

     4.3762   7.1798  11.5185  13.6384  14.6469  17.8690

     occupation numbers 
     1.0000   1.0001   0.0000   0.0000   0.0000   0.0000

          k = 0.6061-0.6061 0.0000 (   310 PWs)   bands (ev):

     5.3269   6.6666   9.5009  13.8363  15.2425  19.8508

     occupation numbers 
     1.0000   1.0000   0.0000   0.0000   0.0000   0.0000

          k = 0.0000 0.0000-0.7071 (   302 PWs)   bands (ev):

     4.9881   6.3141  13.1725  13.5203  13.5203  16.9843

     occupation numbers 
     1.0000   1.0000   0.0000   0.0000   0.0000   0.0000

          k = 0.0000 0.1010 0.2020 (   311 PWs)   bands (ev):

    -2.3063  15.3605  16.4247  19.9667  21.4516  22.0424

     occupation numbers 
     1.0000   0.0000   0.0000   0.0000   0.0000   0.0000

          k =-0.0505 0.1515 0.2525 (   310 PWs)   bands (ev):

    -1.6180  12.9438  15.5751  20.0537  20.1104  22.8127

     occupation numbers 
     1.0000   0.0000   0.0000   0.0000   0.0000   0.0000

          k =-0.1010 0.2020 0.3030 (   308 PWs)   bands (ev):

    -0.6601  10.3678  15.2513  18.6862  19.9669  23.3954

     occupation numbers 
     1.0000   0.0000   0.0000   0.0000   0.0000   0.0000

          k =-0.1515 0.2525 0.3536 (   309 PWs)   bands (ev):

     0.5622   7.9547  15.2001  17.5146  19.9873  22.3197

     occupation numbers 
     1.0000   0.2148   0.0000   0.0000   0.0000   0.0000

          k = 0.5051-0.4041-0.3030 (   308 PWs)   bands (ev):

     2.0413   5.7535  15.3959  16.5836  20.2160  21.4115

     occupation numbers 
     1.0000   1.0000   0.0000   0.0000   0.0000   0.0000

          k = 0.4546-0.3536-0.2525 (   308 PWs)   bands (ev):

     3.6589   3.8943  15.7214  16.0127  20.5591  20.8382

     occupation numbers 
     1.0000   1.0000   0.0000   0.0000   0.0000   0.0000

          k = 0.0000 0.1010 0.3030 (   307 PWs)   bands (ev):

    -1.3893  13.8420  15.0117  18.1216  18.5745  20.6983

     occupation numbers 
     1.0000   0.0000   0.0000   0.0000   0.0000   0.0000

          k =-0.0505 0.1515 0.3536 (   308 PWs)   bands (ev):

    -0.5239  11.5887  14.2795  16.6161  18.9022  21.8072

     occupation numbers 
     1.0000   0.0000   0.0000   0.0000   0.0000   0.0000

          k =-0.1010 0.2020 0.4041 (   312 PWs)   bands (ev):

     0.6067   9.1685  14.0922  15.3505  18.9700  23.5758

     occupation numbers 
     1.0000   0.0000   0.0000   0.0000   0.0000   0.0000

          k = 0.5556-0.4546-0.2525 (   309 PWs)   bands (ev):

     1.9954   6.9151  14.0548  14.4597  19.1664  23.5100

     occupation numbers 
     1.0000   1.0000   0.0000   0.0000   0.0000   0.0000

          k = 0.5051-0.4041-0.2020 (   308 PWs)   bands (ev):

     3.6267   4.8854  13.4496  14.6418  19.5740  22.7803

     occupation numbers 
     1.0000   1.0000   0.0000   0.0000   0.0000   0.0000

          k = 0.4546-0.3536-0.1515 (   307 PWs)   bands (ev):

     3.0605   5.5274  12.9302  15.2438  20.2074  22.2515

     occupation numbers 
     1.0000   1.0000   0.0000   0.0000   0.0000   0.0000

          k = 0.4041-0.3030-0.1010 (   311 PWs)   bands (ev):

     1.5050   7.6258  12.6665  16.1028  21.0494  21.9482

     occupation numbers 
     1.0000   1.0815   0.0000   0.0000   0.0000   0.0000

          k = 0.3536-0.2525-0.0505 (   310 PWs)   bands (ev):

     0.2010   9.8947  12.7088  17.2044  21.6857  22.1969

     occupation numbers 
     1.0000   0.0000   0.0000   0.0000   0.0000   0.0000

          k = 0.3030-0.2020-0.0000 (   311 PWs)   bands (ev):

    -0.8420  11.9674  13.3998  18.5366  21.3521  22.7369

     occupation numbers 
     1.0000   0.0000   0.0000   0.0000   0.0000   0.0000

          k = 0.0000 0.1010 0.4041 (   310 PWs)   bands (ev):

    -0.1161  12.6524  13.8398  14.7150  17.4248  19.7132

     occupation numbers 
     1.0000   0.0000   0.0000   0.0000   0.0000   0.0000

          k =-0.0505 0.1515 0.4546 (   313 PWs)   bands (ev):

     0.9206  10.5624  13.0627  13.5344  17.9333  20.9637

     occupation numbers 
     1.0000   0.0000   0.0000   0.0000   0.0000   0.0000

          k = 0.6061-0.5051-0.2020 (   309 PWs)   bands (ev):

     2.2153   8.3047  12.1018  13.3490  18.1769  22.9688

     occupation numbers 
     1.0000   0.0002   0.0000   0.0000   0.0000   0.0000

          k = 0.5556-0.4546-0.1515 (   308 PWs)   bands (ev):

     3.7556   6.2202  11.2423  13.6040  18.5449  24.8284

     occupation numbers 
     1.0000   1.0000   0.0000   0.0000   0.0000   0.0000

          k = 0.5051-0.4041-0.1010 (   305 PWs)   bands (ev):

     4.3277   5.5540  10.6382  14.1322  19.1236  24.4734

     occupation numbers 
     1.0000   1.0000   0.0000   0.0000   0.0000   0.0000

          k = 0.4546-0.3536-0.0505 (   305 PWs)   bands (ev):

     2.7071   7.4950  10.3498  14.9142  19.9269  24.0504

     occupation numbers 
     1.0000   1.0427   0.0000   0.0000   0.0000   0.0000

          k = 0.4041-0.3030 0.0000 (   306 PWs)   bands (ev):

     1.3258   9.2386  10.7528  15.9414  20.9422  23.4107

     occupation numbers 
     1.0000   0.0000   0.0000   0.0000   0.0000   0.0000

          k = 0.0000 0.1010 0.5051 (   316 PWs)   bands (ev):

     1.5011  11.4073  11.7995  13.1315  16.5906  18.9562

     occupation numbers 
     1.0000   0.0000   0.0000   0.0000   0.0000   0.0000

          k = 0.6566-0.5556-0.1515 (   309 PWs)   bands (ev):

     2.6975   9.8144  10.2681  12.6850  17.2702  20.3684

     occupation numbers 
     1.0000   0.0000   0.0000   0.0000   0.0000   0.0000

          k = 0.6061-0.5051-0.1010 (   311 PWs)   bands (ev):

     4.1328   7.7692   9.2750  12.8266  17.6851  22.5508

     occupation numbers 
     1.0000   0.8424   0.0000   0.0000   0.0000   0.0000

          k = 0.5556-0.4546-0.0505 (   302 PWs)   bands (ev):

     5.6811   5.9381   8.6245  13.2655  18.2228  24.9748

     occupation numbers 
     1.0000   1.0000   0.0000   0.0000   0.0000   0.0000

          k = 0.5051-0.4041 0.0000 (   310 PWs)   bands (ev):

     4.1588   7.1948   8.6779  13.9653  18.9676  26.1021

     occupation numbers 
     1.0000   1.0001   0.0000   0.0000   0.0000   0.0000

          k = 0.7071-0.6061-0.1010 (   314 PWs)   bands (ev):

     3.4314   8.5363  11.2866  12.6233  16.0874  18.4834

     occupation numbers 
     1.0000   0.0000   0.0000   0.0000   0.0000   0.0000

          k = 0.6566-0.5556-0.0505 (   310 PWs)   bands (ev):

     4.7226   7.5213   9.5639  12.3435  16.9353  20.0623

     occupation numbers 
     1.0000   1.0548   0.0000   0.0000   0.0000   0.0000

          k = 0.6061-0.5051 0.0000 (   306 PWs)   bands (ev):

     5.8357   7.1016   7.7511  12.6571  17.5192  22.4069

     occupation numbers 
     1.0000   1.0000   0.8969   0.0000   0.0000   0.0000

          k = 0.0000 0.1010-0.7071 (   308 PWs)   bands (ev):

     5.1575   6.4926  11.1155  12.4566  15.9194  18.3229

     occupation numbers 
     1.0000   1.0000   0.0000   0.0000   0.0000   0.0000

          k = 0.0000 0.2020 0.4041 (   313 PWs)   bands (ev):

     0.4263  10.7743  12.2306  15.1831  20.2902  22.0294

     occupation numbers 
     1.0000   0.0000   0.0000   0.0000   0.0000   0.0000

          k = 0.6566-0.4546-0.2525 (   313 PWs)   bands (ev):

     1.6381   8.8659  11.6837  13.9850  20.8718  23.0877

     occupation numbers 
     1.0000   0.0000   0.0000   0.0000   0.0000   0.0000

          k = 0.6061-0.4041-0.2020 (   307 PWs)   bands (ev):

     3.1026   6.7600  11.7837  13.0498  21.2045  22.4702

     occupation numbers 
     1.0000   1.0000   0.0000   0.0000   0.0000   0.0000

          k = 0.5556-0.3536-0.1515 (   308 PWs)   bands (ev):

     4.6832   4.9539  12.0166  12.5487  21.5202  21.9641

     occupation numbers 
     1.0000   1.0000   0.0000   0.0000   0.0000   0.0000

          k = 0.7071-0.5051-0.2020 (   311 PWs)   bands (ev):

     2.0371   9.9214  11.2656  12.1300  19.4794  21.3702

     occupation numbers 
     1.0000   0.0000   0.0000   0.0000   0.0000   0.0000

          k = 0.6566-0.4546-0.1515 (   308 PWs)   bands (ev):

     3.4048   8.1746  10.6688  11.3053  20.2486  22.9922

     occupation numbers 
     1.0000   0.0058   0.0000   0.0000   0.0000   0.0000

          k = 0.6061-0.4041-0.1010 (   304 PWs)   bands (ev):

     4.9984   6.2441  10.0751  11.4111  20.7713  24.0605

     occupation numbers 
     1.0000   1.0000   0.0000   0.0000   0.0000   0.0000

          k = 0.5556-0.3536-0.0505 (   305 PWs)   bands (ev):

     4.4572   6.8070   9.6390  11.9896  21.4230  23.5360

     occupation numbers 
     1.0000   1.0000   0.0000   0.0000   0.0000   0.0000

          k = 0.5051-0.3030 0.0000 (   313 PWs)   bands (ev):

     2.9258   8.3865   9.8751  12.8581  22.2351  22.6722

     occupation numbers 
     1.0000   0.0000   0.0000   0.0000   0.0000   0.0000

          k = 0.7071-0.5051-0.1010 (   311 PWs)   bands (ev):

     3.9582   9.0219   9.4096  10.9904  18.9838  20.9427

     occupation numbers 
     1.0000   0.0000   0.0000   0.0000   0.0000   0.0000

          k = 0.6566-0.4546-0.0505 (   306 PWs)   bands (ev):

     5.4127   7.7649   8.3015  10.7546  19.9277  22.7518

     occupation numbers 
     1.0000   0.8561   0.0002   0.0000   0.0000   0.0000

          k = 0.6061-0.4041 0.0000 (   303 PWs)   bands (ev):

     6.0354   6.6847   8.1399  11.2086  20.6184  25.0394

     occupation numbers 
     1.0000   1.0000   0.0119   0.0000   0.0000   0.0000

          k =-0.0000 0.2020-0.7071 (   304 PWs)   bands (ev):

     5.6660   7.0188   9.2390  10.7959  18.8177  20.7962

     occupation numbers 
     1.0000   1.0000   0.0000   0.0000   0.0000   0.0000

          k = 0.7071-0.4041-0.1010 (   307 PWs)   bands (ev):

     4.8311   7.8756   9.2077  10.1594  22.1965  23.3766

     occupation numbers 
     1.0000   0.4575   0.0000   0.0000   0.0000   0.0000

          k = 0.6566-0.3536-0.0505 (   310 PWs)   bands (ev):

     6.3474   6.5506   8.9761   9.7036  23.0099  23.3804

     occupation numbers 
     1.0000   1.0000   0.0000   0.0000   0.0000   0.0000

          k = 0.0000 0.3030-0.7071 (   308 PWs)   bands (ev):

     6.5148   7.7054   7.8191   9.3731  22.0352  23.4807

     occupation numbers 
     1.0000   1.0041   0.6682   0.0000   0.0000   0.0000

     the Fermi energy is     7.8918 ev

!    total energy              =     -39.50213292 Ry

     total all-electron energy =      -485.644914 Ry
     estimated scf accuracy    <          1.7E-10 Ry
     smearing contrib. (-TS)   =      -0.00001157 Ry
     internal energy E=F+TS    =     -39.50212134 Ry

     The total energy is F=E-TS. E is the sum of the following terms:
     one-electron contribution =       3.16709694 Ry
     hartree contribution      =       0.00581657 Ry
     xc contribution           =      -2.59097882 Ry
     ewald contribution        =      -5.40491107 Ry
     one-center paw contrib.   =     -34.67914497 Ry
      -> PAW hartree energy AE =       1.36719772 Ry
      -> PAW hartree energy PS =      -1.36254742 Ry
      -> PAW xc energy AE      =     -36.56971821 Ry
      -> PAW xc energy PS      =       1.88592294 Ry
      -> total E_H with PAW    =       0.01046687 Ry
      -> total E_XC with PAW   =     -37.27477409 Ry

     convergence has been achieved in   6 iterations

     Forces acting on atoms (cartesian axes, Ry/au):

     atom    1 type  1   force =     0.00000000    0.00000000    0.00000000
     The non-local contrib.  to forces
     atom    1 type  1   force =     0.00000000   -0.00000000   -0.00000000
     The ionic contribution  to forces
     atom    1 type  1   force =    -0.00000000   -0.00000000   -0.00000000
     The local contribution  to forces
     atom    1 type  1   force =     0.00000000   -0.00000000    0.00000000
     The core correction contribution to forces
     atom    1 type  1   force =    -0.00000000    0.00000000    0.00000000
     The Hubbard contrib.    to forces
     atom    1 type  1   force =     0.00000000    0.00000000    0.00000000
     The SCF correction term to forces
     atom    1 type  1   force =    -0.00000000    0.00000000   -0.00000000

     Total force =     0.000000     Total SCF correction =     0.000000


     Computing stress (Cartesian axis) and pressure

          total   stress  (Ry/bohr**3)                   (kbar)     P=       -2.12
  -0.00001444   0.00000000  -0.00000000           -2.12        0.00       -0.00
   0.00000000  -0.00001444  -0.00000000            0.00       -2.12       -0.00
  -0.00000000   0.00000000  -0.00001444           -0.00        0.00       -2.12

     kinetic stress (kbar)   1465.64      0.00      0.00
                                0.00   1465.64      0.00
                                0.00      0.00   1465.64

     local   stress (kbar)    644.06      0.00      0.00
                                0.00    644.06      0.00
                                0.00      0.00    644.06

     nonloc. stress (kbar)   1051.20      0.00      0.00
                                0.00   1051.20      0.00
                                0.00      0.00   1051.20

     hartree stress (kbar)      2.56      0.00      0.00
                                0.00      2.56      0.00
                                0.00      0.00      2.56

     exc-cor stress (kbar)    505.01     -0.00     -0.00
                               -0.00    505.01      0.00
                               -0.00      0.00    505.01

     corecor stress (kbar)  -1288.20      0.00     -0.00
                                0.00  -1288.20     -0.00
                               -0.00     -0.00  -1288.20

     ewald   stress (kbar)  -2382.40      0.00      0.00
                                0.00  -2382.40      0.00
                                0.00      0.00  -2382.40

     hubbard stress (kbar)      0.00      0.00      0.00
                                0.00      0.00      0.00
                                0.00      0.00      0.00

     DFT-D   stress (kbar)      0.00      0.00      0.00
                                0.00      0.00      0.00
                                0.00      0.00      0.00

     XDM     stress (kbar)      0.00      0.00      0.00
                                0.00      0.00      0.00
                                0.00      0.00      0.00

     dft-nl  stress (kbar)      0.00      0.00      0.00
                                0.00      0.00      0.00
                                0.00      0.00      0.00

     TS-vdW  stress (kbar)      0.00      0.00      0.00
                                0.00      0.00      0.00
                                0.00      0.00      0.00


                                0.00      0.00      0.00
                                0.00      0.00      0.00


                                0.00      0.00      0.00


     BFGS Geometry Optimization
     Energy error            =      0.0E+00 Ry
     Gradient error          =      0.0E+00 Ry/Bohr
     Cell gradient error     =      2.1E+00 kbar

     number of scf cycles    =   1
     number of bfgs steps    =   0

     enthalpy           new  =     -39.5021329164 Ry

     new trust radius        =       0.0007614359 bohr
     Message from routine volume:
     axis vectors are left-handed
     new conv_thr            =       0.0000000002 Ry

     new unit-cell volume =    111.12463 a.u.^3 (    16.46697 Ang^3 )
     density =      2.72083 g/cm^3

CELL_PARAMETERS (angstrom)
   2.019270854   2.019270854   0.000000000
   2.019270854  -0.000000000   2.019270854
   0.000000000   2.019270854   2.019270854

ATOMIC_POSITIONS (crystal)
Al            0.0000000000        0.0000000000        0.0000000000



     Writing output data file ./out/aiida.save/
     NEW-OLD atomic charge density approx. for the potential
     extrapolated charge    2.99675, renormalised to    3.00000

     total cpu time spent up to now is        4.9 secs

     Self-consistent Calculation

     iteration #  1     ecut=    30.00 Ry     beta= 0.40
     Davidson diagonalization with overlap

---- Real-time Memory Report at c_bands before calling an iterative solver
            64 MiB given to the printing process from OS
             0 MiB allocation reported by mallinfo(arena+hblkhd)
          2858 MiB available memory on the node where the printing process lives
------------------
     ethr =  1.00E-06,  avg # of iterations =  2.0

     Threshold (ethr) on eigenvalues was too large:
     Diagonalizing with lowered threshold

     Davidson diagonalization with overlap

---- Real-time Memory Report at c_bands before calling an iterative solver
            64 MiB given to the printing process from OS
             0 MiB allocation reported by mallinfo(arena+hblkhd)
          2858 MiB available memory on the node where the printing process lives
------------------
     ethr =  3.51E-10,  avg # of iterations =  2.5

     total cpu time spent up to now is        5.6 secs

     total energy              =     -39.50213433 Ry
     estimated scf accuracy    <          9.2E-09 Ry

     iteration #  2     ecut=    30.00 Ry     beta= 0.40
     Davidson diagonalization with overlap

---- Real-time Memory Report at c_bands before calling an iterative solver
            64 MiB given to the printing process from OS
             0 MiB allocation reported by mallinfo(arena+hblkhd)
          2858 MiB available memory on the node where the printing process lives
------------------
     ethr =  3.05E-10,  avg # of iterations =  1.3

     total cpu time spent up to now is        5.9 secs

     total energy              =     -39.50213432 Ry
     estimated scf accuracy    <          2.5E-09 Ry

     iteration #  3     ecut=    30.00 Ry     beta= 0.40
     Davidson diagonalization with overlap

---- Real-time Memory Report at c_bands before calling an iterative solver
            64 MiB given to the printing process from OS
             0 MiB allocation reported by mallinfo(arena+hblkhd)
          2858 MiB available memory on the node where the printing process lives
------------------
     ethr =  8.47E-11,  avg # of iterations =  1.1

     total cpu time spent up to now is        6.3 secs

     End of self-consistent calculation

          k = 0.0000 0.0000 0.0000 (   331 PWs)   bands (ev):

    -3.2256  20.5469  20.5469  22.0602  22.0603  22.0603

     occupation numbers 
     1.0000   0.0000   0.0000   0.0000   0.0000   0.0000

          k =-0.0505 0.0505 0.0505 (   316 PWs)   bands (ev):

    -3.0866  18.4180  20.0950  20.0950  22.7179  22.7256

     occupation numbers 
     1.0000   0.0000   0.0000   0.0000   0.0000   0.0000

          k =-0.1011 0.1011 0.1011 (   310 PWs)   bands (ev):

    -2.6706  15.5313  19.4647  19.4647  22.6278  23.8427

     occupation numbers 
     1.0000   0.0000   0.0000   0.0000   0.0000   0.0000

          k =-0.1516 0.1516 0.1516 (   311 PWs)   bands (ev):

    -1.9801  12.7171  19.0001  19.0001  22.4007  23.3339

     occupation numbers 
     1.0000   0.0000   0.0000   0.0000   0.0000   0.0000

          k =-0.2021 0.2021 0.2021 (   305 PWs)   bands (ev):

    -1.0189  10.0730  18.7501  18.7501  22.0676  22.0681

     occupation numbers 
     1.0000   0.0000   0.0000   0.0000   0.0000   0.0000

          k =-0.2526 0.2526 0.2526 (   308 PWs)   bands (ev):

     0.2074   7.6339  18.7268  18.7268  20.9504  20.9504

     occupation numbers 
     1.0000   1.0821   0.0000   0.0000   0.0000   0.0000

          k =-0.3032 0.3032 0.3032 (   314 PWs)   bands (ev):

     1.6919   5.4187  18.9343  18.9343  20.0482  20.0482

     occupation numbers 
     1.0000   1.0000   0.0000   0.0000   0.0000   0.0000

          k = 0.3537-0.3537-0.3537 (   302 PWs)   bands (ev):

     3.3233   3.5433  19.3600  19.3600  19.3899  19.3899

     occupation numbers 
     1.0000   1.0000   0.0000   0.0000   0.0000   0.0000

          k = 0.0000 0.0000 0.1011 (   315 PWs)   bands (ev):

    -3.0403  19.1337  19.1337  19.4236  21.6281  23.7420

     occupation numbers 
     1.0000   0.0000   0.0000   0.0000   0.0000   0.0000

          k =-0.0505 0.0505 0.1516 (   311 PWs)   bands (ev):

    -2.7168  16.5484  18.3471  19.5107  21.9017  23.5834

     occupation numbers 
     1.0000   0.0000   0.0000   0.0000   0.0000   0.0000

          k =-0.1011 0.1011 0.2021 (   315 PWs)   bands (ev):

    -2.1179  13.7287  17.7788  19.2009  21.7542  23.3613

     occupation numbers 
     1.0000   0.0000   0.0000   0.0000   0.0000   0.0000

          k =-0.1516 0.1516 0.2526 (   307 PWs)   bands (ev):

    -1.2472  11.0366  17.4392  18.9317  20.3557  23.7525

     occupation numbers 
     1.0000   0.0000   0.0000   0.0000   0.0000   0.0000

          k =-0.2021 0.2021 0.3032 (   304 PWs)   bands (ev):

    -0.1096   8.5334  17.3319  18.8419  19.1379  22.8711

     occupation numbers 
     1.0000   0.0000   0.0000   0.0000   0.0000   0.0000

          k =-0.2526 0.2526 0.3537 (   309 PWs)   bands (ev):

     1.2885   6.2458  17.4585  18.1081  19.0158  21.9110

     occupation numbers 
     1.0000   1.0000   0.0000   0.0000   0.0000   0.0000

          k = 0.4042-0.4042-0.3032 (   315 PWs)   bands (ev):

     2.9342   4.1945  17.3396  17.8201  19.4015  21.1682

     occupation numbers 
     1.0000   1.0000   0.0000   0.0000   0.0000   0.0000

          k = 0.3537-0.3537-0.2526 (   307 PWs)   bands (ev):

     2.3605   4.8491  16.8093  18.4169  20.0275  20.6533

     occupation numbers 
     1.0000   1.0000   0.0000   0.0000   0.0000   0.0000

          k = 0.3032-0.3032-0.2021 (   309 PWs)   bands (ev):

     0.7941   6.9823  16.5209  19.2446  20.3713  20.8861

     occupation numbers 
     1.0000   1.0000   0.0000   0.0000   0.0000   0.0000

          k = 0.2526-0.2526-0.1516 (   305 PWs)   bands (ev):

    -0.5181   9.3422  16.4754  20.1893  20.4281  21.9618

     occupation numbers 
     1.0000   0.0000   0.0000   0.0000   0.0000   0.0000

          k = 0.2021-0.2021-0.1011 (   308 PWs)   bands (ev):

    -1.5674  11.9071  16.6742  20.4390  21.5986  23.1195

     occupation numbers 
     1.0000   0.0000   0.0000   0.0000   0.0000   0.0000

          k = 0.1516-0.1516-0.0505 (   312 PWs)   bands (ev):

    -2.3480  14.6292  17.1280  20.7704  22.7380  23.3183

     occupation numbers 
     1.0000   0.0000   0.0000   0.0000   0.0000   0.0000

          k = 0.1011-0.1011 0.0000 (   315 PWs)   bands (ev):

    -2.8554  17.2042  18.0424  20.9081  22.2784  23.2087

     occupation numbers 
     1.0000   0.0000   0.0000   0.0000   0.0000   0.0000

          k = 0.0000 0.0000 0.2021 (   307 PWs)   bands (ev):

    -2.4861  17.4543  17.4543  17.6598  20.6274  21.6495

     occupation numbers 
     1.0000   0.0000   0.0000   0.0000   0.0000   0.0000

          k =-0.0505 0.0505 0.2526 (   308 PWs)   bands (ev):

    -1.9801  14.9023  16.7944  18.0303  19.8525  20.8597

     occupation numbers 
     1.0000   0.0000   0.0000   0.0000   0.0000   0.0000

          k =-0.1011 0.1011 0.3032 (   306 PWs)   bands (ev):

    -1.2015  12.2158  16.3691  17.9012  18.3268  22.2110

     occupation numbers 
     1.0000   0.0000   0.0000   0.0000   0.0000   0.0000

          k =-0.1516 0.1516 0.3537 (   307 PWs)   bands (ev):

    -0.1551   9.6709  16.1792  16.9044  17.8834  24.0047

     occupation numbers 
     1.0000   0.0000   0.0000   0.0000   0.0000   0.0000

          k =-0.2021 0.2021 0.4042 (   307 PWs)   bands (ev):

     1.1532   7.3229  15.8030  16.2248  17.9687  23.9952

     occupation numbers 
     1.0000   1.0023   0.0000   0.0000   0.0000   0.0000

          k = 0.4547-0.4547-0.2526 (   307 PWs)   bands (ev):

     2.7142   5.1982  14.9363  16.5066  18.2961  23.1928

     occupation numbers 
     1.0000   1.0000   0.0000   0.0000   0.0000   0.0000

[...]
     1.0000   1.0000   0.0000   0.0000   0.0000   0.0000

          k = 0.4044-0.4044 0.0000 (   303 PWs)   bands (ev):

     2.5938   8.0718   9.5887  16.4167  18.3105  26.2633

     occupation numbers 
     1.0000   0.0649   0.0000   0.0000   0.0000   0.0000

          k =-0.0000 0.0000 0.5055 (   314 PWs)   bands (ev):

     1.3391  11.2940  13.9334  14.1891  14.1891  17.7066

     occupation numbers 
     1.0000   0.0000   0.0000   0.0000   0.0000   0.0000

          k =-0.0506 0.0506 0.5561 (   316 PWs)   bands (ev):

     2.3611   9.8810  11.8966  13.9934  15.0329  18.2479

     occupation numbers 
     1.0000   0.0000   0.0000   0.0000   0.0000   0.0000

          k = 0.6066-0.6066-0.1011 (   312 PWs)   bands (ev):

     3.6277   8.7119   9.7273  14.0347  15.4600  20.0609

     occupation numbers 
     1.0000   0.0000   0.0000   0.0000   0.0000   0.0000

          k = 0.5561-0.5561-0.0506 (   305 PWs)   bands (ev):

     5.0896   7.4980   8.0638  14.3129  15.8932  22.4046

     occupation numbers 
     1.0000   1.0323   0.0734   0.0000   0.0000   0.0000

          k = 0.5055-0.5055 0.0000 (   304 PWs)   bands (ev):

     5.7368   6.3684   7.8435  14.8285  16.5230  24.9653

     occupation numbers 
     1.0000   1.0000   0.6798   0.0000   0.0000   0.0000

          k =-0.0000 0.0000 0.6066 (   314 PWs)   bands (ev):

     3.2754   8.3967  13.3845  13.7180  13.7180  17.2075

     occupation numbers 
     1.0000   0.0000   0.0000   0.0000   0.0000   0.0000

          k = 0.6572-0.6572-0.0506 (   308 PWs)   bands (ev):

     4.3977   7.2076  11.5512  13.6794  14.6847  17.9223

     occupation numbers 
     1.0000   1.0001   0.0000   0.0000   0.0000   0.0000

          k = 0.6066-0.6066 0.0000 (   310 PWs)   bands (ev):

     5.3489   6.6944   9.5319  13.8775  15.2826  19.9047

     occupation numbers 
     1.0000   1.0000   0.0000   0.0000   0.0000   0.0000

          k = 0.0000-0.0000-0.7077 (   302 PWs)   bands (ev):

     5.0096   6.3416  13.2012  13.5610  13.5610  17.0378

     occupation numbers 
     1.0000   1.0000   0.0000   0.0000   0.0000   0.0000

          k =-0.0000 0.1011 0.2022 (   311 PWs)   bands (ev):

    -2.2954  15.3985  16.4697  20.0113  21.5152  22.0899

     occupation numbers 
     1.0000   0.0000   0.0000   0.0000   0.0000   0.0000

          k =-0.0506 0.1517 0.2528 (   310 PWs)   bands (ev):

    -1.6059  12.9792  15.6179  20.1076  20.1543  22.8703

     occupation numbers 
     1.0000   0.0000   0.0000   0.0000   0.0000   0.0000

          k =-0.1011 0.2022 0.3033 (   306 PWs)   bands (ev):

    -0.6463  10.3996  15.2932  18.7341  20.0156  23.4512

     occupation numbers 
     1.0000   0.0000   0.0000   0.0000   0.0000   0.0000

          k =-0.1517 0.2528 0.3539 (   309 PWs)   bands (ev):

     0.5780   7.9828  15.2416  17.5606  20.0369  22.3730

     occupation numbers 
     1.0000   0.2136   0.0000   0.0000   0.0000   0.0000

          k = 0.5055-0.4044-0.3033 (   308 PWs)   bands (ev):

     2.0595   5.7783  15.4371  16.6287  20.2666  21.4630

     occupation numbers 
     1.0000   1.0000   0.0000   0.0000   0.0000   0.0000

          k = 0.4550-0.3539-0.2528 (   302 PWs)   bands (ev):

     3.6766   3.9192  15.7599  16.0602  20.6125  20.8867

     occupation numbers 
     1.0000   1.0000   0.0000   0.0000   0.0000   0.0000

          k =-0.0000 0.1011 0.3033 (   307 PWs)   bands (ev):

    -1.3768  13.8774  15.0546  18.1679  18.6175  20.7559

     occupation numbers 
     1.0000   0.0000   0.0000   0.0000   0.0000   0.0000

          k =-0.0506 0.1517 0.3539 (   308 PWs)   bands (ev):

    -0.5099  11.6218  14.3199  16.6604  18.9479  21.8645

     occupation numbers 
     1.0000   0.0000   0.0000   0.0000   0.0000   0.0000

          k =-0.1011 0.2022 0.4044 (   311 PWs)   bands (ev):

     0.6226   9.1982  14.1313  15.3937  19.0174  23.6346

     occupation numbers 
     1.0000   0.0000   0.0000   0.0000   0.0000   0.0000

          k = 0.5561-0.4550-0.2528 (   309 PWs)   bands (ev):

     2.0136   6.9415  14.0900  14.5051  19.2147  23.5655

     occupation numbers 
     1.0000   1.0000   0.0000   0.0000   0.0000   0.0000

          k = 0.5055-0.4044-0.2022 (   308 PWs)   bands (ev):

     3.6470   4.9091  13.4868  14.6847  19.6233  22.8342

     occupation numbers 
     1.0000   1.0000   0.0000   0.0000   0.0000   0.0000

          k = 0.4550-0.3539-0.1517 (   307 PWs)   bands (ev):

     3.0803   5.5518  12.9675  15.2868  20.2580  22.3040

     occupation numbers 
     1.0000   1.0000   0.0000   0.0000   0.0000   0.0000

          k = 0.4044-0.3033-0.1011 (   311 PWs)   bands (ev):

     1.5224   7.6531  12.7039  16.1469  21.1020  21.9993

     occupation numbers 
     1.0000   1.0815   0.0000   0.0000   0.0000   0.0000

          k = 0.3539-0.2528-0.0506 (   310 PWs)   bands (ev):

     0.2162   9.9250  12.7470  17.2501  21.7375  22.2493

     occupation numbers 
     1.0000   0.0000   0.0000   0.0000   0.0000   0.0000

          k = 0.3033-0.2022-0.0000 (   310 PWs)   bands (ev):

    -0.8286  11.9997  13.4405  18.5846  21.3993  22.7972

     occupation numbers 
     1.0000   0.0000   0.0000   0.0000   0.0000   0.0000

          k =-0.0000 0.1011 0.4044 (   310 PWs)   bands (ev):

    -0.1014  12.6858  13.8788  14.7576  17.4663  19.7698

     occupation numbers 
     1.0000   0.0000   0.0000   0.0000   0.0000   0.0000

          k =-0.0506 0.1517 0.4550 (   313 PWs)   bands (ev):

     0.9370  10.5935  13.0961  13.5791  17.9775  21.0200

     occupation numbers 
     1.0000   0.0000   0.0000   0.0000   0.0000   0.0000

          k = 0.6066-0.5055-0.2022 (   309 PWs)   bands (ev):

     2.2339   8.3329  12.1364  13.3904  18.2228  23.0266

     occupation numbers 
     1.0000   0.0002   0.0000   0.0000   0.0000   0.0000

          k = 0.5561-0.4550-0.1517 (   304 PWs)   bands (ev):

     3.7764   6.2456  11.2766  13.6448  18.5920  24.8873

     occupation numbers 
     1.0000   1.0000   0.0000   0.0000   0.0000   0.0000

          k = 0.5055-0.4044-0.1011 (   304 PWs)   bands (ev):

     4.3491   5.5786  10.6721  14.1734  19.1720  24.5298

     occupation numbers 
     1.0000   1.0000   0.0000   0.0000   0.0000   0.0000

          k = 0.4550-0.3539-0.0506 (   305 PWs)   bands (ev):

     2.7264   7.5216  10.3840  14.9565  19.9769  24.1049

     occupation numbers 
     1.0000   1.0422   0.0000   0.0000   0.0000   0.0000

          k = 0.4044-0.3033-0.0000 (   306 PWs)   bands (ev):

     1.3429   9.2666  10.7892  15.9852  20.9941  23.4618

     occupation numbers 
     1.0000   0.0000   0.0000   0.0000   0.0000   0.0000

          k =-0.0000 0.1011 0.5055 (   316 PWs)   bands (ev):

     1.5185  11.4403  11.8313  13.1739  16.6309  19.0116

     occupation numbers 
     1.0000   0.0000   0.0000   0.0000   0.0000   0.0000

          k = 0.6572-0.5561-0.1517 (   309 PWs)   bands (ev):

     2.7168   9.8428  10.3020  12.7251  17.3132  20.4237

     occupation numbers 
     1.0000   0.0000   0.0000   0.0000   0.0000   0.0000

          k = 0.6066-0.5055-0.1011 (   306 PWs)   bands (ev):

     4.1542   7.7959   9.3071  12.8661  17.7302  22.6079

     occupation numbers 
     1.0000   0.8452   0.0000   0.0000   0.0000   0.0000

          k = 0.5561-0.4550-0.0506 (   302 PWs)   bands (ev):

     5.7025   5.9645   8.6561  13.3054  18.2693  25.0350

     occupation numbers 
     1.0000   1.0000   0.0000   0.0000   0.0000   0.0000

          k = 0.5055-0.4044 0.0000 (   302 PWs)   bands (ev):

     4.1803   7.2196   8.7108  14.0062  19.0158  26.1582

     occupation numbers 
     1.0000   1.0001   0.0000   0.0000   0.0000   0.0000

          k = 0.7077-0.6066-0.1011 (   314 PWs)   bands (ev):

     3.4517   8.5657  11.3176  12.6643  16.1271  18.5379

     occupation numbers 
     1.0000   0.0000   0.0000   0.0000   0.0000   0.0000

          k = 0.6572-0.5561-0.0506 (   310 PWs)   bands (ev):

     4.7446   7.5492   9.5944  12.3827  16.9778  20.1171

     occupation numbers 
     1.0000   1.0550   0.0000   0.0000   0.0000   0.0000

          k = 0.6066-0.5055 0.0000 (   306 PWs)   bands (ev):

     5.8584   7.1265   7.7832  12.6962  17.5640  22.4637

     occupation numbers 
     1.0000   1.0000   0.8840   0.0000   0.0000   0.0000

          k = 0.0000 0.1011-0.7077 (   308 PWs)   bands (ev):

     5.1792   6.5203  11.1462  12.4973  15.9589  18.3771

     occupation numbers 
     1.0000   1.0000   0.0000   0.0000   0.0000   0.0000

          k =-0.0000 0.2022 0.4044 (   313 PWs)   bands (ev):

     0.4419  10.8047  12.2689  15.2257  20.3364  22.0888

     occupation numbers 
     1.0000   0.0000   0.0000   0.0000   0.0000   0.0000

          k = 0.6572-0.4550-0.2528 (   307 PWs)   bands (ev):

     1.6557   8.8946  11.7195  14.0262  20.9213  23.1452

     occupation numbers 
     1.0000   0.0000   0.0000   0.0000   0.0000   0.0000

          k = 0.6066-0.4044-0.2022 (   307 PWs)   bands (ev):

     3.1224   6.7860  11.8180  13.0906  21.2563  22.5234

     occupation numbers 
     1.0000   1.0000   0.0000   0.0000   0.0000   0.0000

          k = 0.5561-0.3539-0.1517 (   308 PWs)   bands (ev):

     4.7026   4.9801  12.0479  12.5920  21.5747  22.0144

     occupation numbers 
     1.0000   1.0000   0.0000   0.0000   0.0000   0.0000

          k = 0.7077-0.5055-0.2022 (   311 PWs)   bands (ev):

     2.0554   9.9504  11.2981  12.1721  19.5244  21.4284

     occupation numbers 
     1.0000   0.0000   0.0000   0.0000   0.0000   0.0000

          k = 0.6572-0.4550-0.1517 (   308 PWs)   bands (ev):

     3.4252   8.2020  10.6977  11.3478  20.2970  23.0511

     occupation numbers 
     1.0000   0.0058   0.0000   0.0000   0.0000   0.0000

          k = 0.6066-0.4044-0.1011 (   304 PWs)   bands (ev):

     5.0207   6.2695  10.1063  11.4502  20.8219  24.1170

     occupation numbers 
     1.0000   1.0000   0.0000   0.0000   0.0000   0.0000

          k = 0.5561-0.3539-0.0506 (   305 PWs)   bands (ev):

     4.4790   6.8326   9.6713  12.0282  21.4755  23.5894

     occupation numbers 
     1.0000   1.0000   0.0000   0.0000   0.0000   0.0000

          k = 0.5055-0.3033 0.0000 (   309 PWs)   bands (ev):

     2.9455   8.4132   9.9093  12.8977  22.2900  22.7227

     occupation numbers 
     1.0000   0.0000   0.0000   0.0000   0.0000   0.0000

          k = 0.7077-0.5055-0.1011 (   303 PWs)   bands (ev):

     3.9793   9.0509   9.4378  11.0308  19.0282  21.0002

     occupation numbers 
     1.0000   0.0000   0.0000   0.0000   0.0000   0.0000

          k = 0.6572-0.4550-0.0506 (   306 PWs)   bands (ev):

     5.4356   7.7898   8.3327  10.7925  19.9754  22.8102

     occupation numbers 
     1.0000   0.8642   0.0002   0.0000   0.0000   0.0000

          k = 0.6066-0.4044 0.0000 (   303 PWs)   bands (ev):

     6.0591   6.7088   8.1715  11.2462  20.6687  25.1005

     occupation numbers 
     1.0000   1.0000   0.0110   0.0000   0.0000   0.0000

          k = 0.0000 0.2022-0.7077 (   304 PWs)   bands (ev):

     5.6885   7.0468   9.2669  10.8352  18.8618  20.8534

     occupation numbers 
     1.0000   1.0000   0.0000   0.0000   0.0000   0.0000

          k = 0.7077-0.4044-0.1011 (   307 PWs)   bands (ev):

     4.8535   7.9014   9.2360  10.1997  22.2463  23.4373

     occupation numbers 
     1.0000   0.4639   0.0000   0.0000   0.0000   0.0000

          k = 0.6572-0.3539-0.0506 (   306 PWs)   bands (ev):

     6.3699   6.5771   9.0018   9.7451  23.0653  23.4327

     occupation numbers 
     1.0000   1.0000   0.0000   0.0000   0.0000   0.0000

          k = 0.0000 0.3033-0.7077 (   308 PWs)   bands (ev):

     6.5386   7.7309   7.8453   9.4133  22.0848  23.5421

     occupation numbers 
     1.0000   1.0078   0.6731   0.0000   0.0000   0.0000

     the Fermi energy is     7.9194 ev

!    total energy              =     -39.50213503 Ry

     total all-electron energy =      -485.644917 Ry
     estimated scf accuracy    <          1.8E-12 Ry
     smearing contrib. (-TS)   =      -0.00000988 Ry
     internal energy E=F+TS    =     -39.50212515 Ry

     The total energy is F=E-TS. E is the sum of the following terms:
     one-electron contribution =       3.17364120 Ry
     hartree contribution      =       0.00583164 Ry
     xc contribution           =      -2.59243374 Ry
     ewald contribution        =      -5.40979291 Ry
     one-center paw contrib.   =     -34.67937134 Ry
      -> PAW hartree energy AE =       1.37236253 Ry
      -> PAW hartree energy PS =      -1.36770227 Ry
      -> PAW xc energy AE      =     -36.57236670 Ry
      -> PAW xc energy PS      =       1.88833510 Ry
      -> total E_H with PAW    =       0.01049190 Ry
      -> total E_XC with PAW   =     -37.27646534 Ry

     convergence has been achieved in   8 iterations

     Forces acting on atoms (cartesian axes, Ry/au):

     atom    1 type  1   force =     0.00000000    0.00000000    0.00000000
     The non-local contrib.  to forces
     atom    1 type  1   force =    -0.00000000   -0.00000000   -0.00000000
     The ionic contribution  to forces
     atom    1 type  1   force =    -0.00000000   -0.00000000   -0.00000000
     The local contribution  to forces
     atom    1 type  1   force =     0.00000000    0.00000000   -0.00000000
     The core correction contribution to forces
     atom    1 type  1   force =    -0.00000000    0.00000000   -0.00000000
     The Hubbard contrib.    to forces
     atom    1 type  1   force =     0.00000000    0.00000000    0.00000000
     The SCF correction term to forces
     atom    1 type  1   force =    -0.00000000    0.00000000   -0.00000000

     Total force =     0.000000     Total SCF correction =     0.000000


     Computing stress (Cartesian axis) and pressure

          total   stress  (Ry/bohr**3)                   (kbar)     P=       -0.06
  -0.00000040  -0.00000000   0.00000000           -0.06       -0.00        0.00
  -0.00000000  -0.00000040   0.00000000           -0.00       -0.06        0.00
   0.00000000  -0.00000000  -0.00000040            0.00       -0.00       -0.06

     kinetic stress (kbar)   1472.17     -0.00      0.00
                                0.00   1472.17     -0.00
                                0.00      0.00   1472.17

     local   stress (kbar)    647.61     -0.00      0.00
                               -0.00    647.61      0.00
                                0.00      0.00    647.61

     nonloc. stress (kbar)   1054.60     -0.00     -0.00
                               -0.00   1054.60      0.00
                               -0.00      0.00   1054.60

     hartree stress (kbar)      2.58      0.00      0.00
                                0.00      2.58     -0.00
                                0.00     -0.00      2.58

     exc-cor stress (kbar)    505.87      0.00      0.00
                                0.00    505.87      0.00
                                0.00      0.00    505.87

     corecor stress (kbar)  -1291.87     -0.00      0.00
                                0.00  -1291.87     -0.00
                                0.00     -0.00  -1291.87

     ewald   stress (kbar)  -2391.02     -0.00     -0.00
                               -0.00  -2391.02      0.00
                               -0.00      0.00  -2391.02

     hubbard stress (kbar)      0.00      0.00      0.00
                                0.00      0.00      0.00
                                0.00      0.00      0.00

     DFT-D   stress (kbar)      0.00      0.00      0.00
                                0.00      0.00      0.00
                                0.00      0.00      0.00

     XDM     stress (kbar)      0.00      0.00      0.00
                                0.00      0.00      0.00
                                0.00      0.00      0.00

     dft-nl  stress (kbar)      0.00      0.00      0.00
                                0.00      0.00      0.00
                                0.00      0.00      0.00

     TS-vdW  stress (kbar)      0.00      0.00      0.00
                                0.00      0.00      0.00
                                0.00      0.00      0.00


                                0.00      0.00      0.00
                                0.00      0.00      0.00


                                0.00      0.00      0.00


     Writing output data file ./out/aiida.save/

     init_run     :      1.72s CPU      1.77s WALL (       2 calls)
     electrons    :     10.03s CPU     10.23s WALL (       4 calls)
     update_pot   :      0.72s CPU      0.72s WALL (       2 calls)
     forces       :      0.78s CPU      0.78s WALL (       4 calls)
     stress       :      2.20s CPU      2.22s WALL (       4 calls)

     Called by init_run:
     wfcinit      :      0.14s CPU      0.15s WALL (       2 calls)
     wfcinit:atom :      0.01s CPU      0.01s WALL (     208 calls)
     wfcinit:wfcr :      0.12s CPU      0.12s WALL (     208 calls)
     potinit      :      0.37s CPU      0.38s WALL (       2 calls)
     hinit0       :      1.17s CPU      1.19s WALL (       2 calls)

     Called by electrons:
     c_bands      :      6.01s CPU      6.18s WALL (      25 calls)
     sum_band     :      1.16s CPU      1.17s WALL (      25 calls)
     v_of_rho     :      0.21s CPU      0.21s WALL (      26 calls)
     v_h          :      0.01s CPU      0.01s WALL (      26 calls)
     v_xc         :      0.25s CPU      0.26s WALL (      34 calls)
     newd         :      0.28s CPU      0.29s WALL (      26 calls)
     PAW_pot      :      3.04s CPU      3.06s WALL (      28 calls)
     mix_rho      :      0.02s CPU      0.02s WALL (      25 calls)

     Called by c_bands:
     init_us_2    :      0.42s CPU      0.43s WALL (    6448 calls)
     cegterg      :      5.45s CPU      5.61s WALL (    2600 calls)

     Called by sum_band:
     sum_band:wei :      0.01s CPU      0.01s WALL (      25 calls)
     sum_band:loo :      0.86s CPU      0.87s WALL (      25 calls)
     sum_band:buf :      0.01s CPU      0.01s WALL (    2600 calls)
     sum_band:ini :      0.17s CPU      0.17s WALL (    2600 calls)
     sum_band:cal :      0.16s CPU      0.16s WALL (    2808 calls)
     sum_band:bec :      0.01s CPU      0.01s WALL (    2808 calls)
     addusdens    :      0.25s CPU      0.26s WALL (      25 calls)
     addusd:skk   :      0.00s CPU      0.00s WALL (      25 calls)
     addusd:dgemm :      0.05s CPU      0.06s WALL (      25 calls)
     addusd:qvan2 :      0.15s CPU      0.15s WALL (      25 calls)

     Called by *egterg:
     cdiaghg      :      0.31s CPU      0.32s WALL (    8975 calls)
     cegterg:over :      0.33s CPU      0.34s WALL (    6895 calls)
     cegterg:upda :      0.21s CPU      0.21s WALL (    6895 calls)
     cegterg:last :      0.44s CPU      0.45s WALL (    5542 calls)
     h_psi        :      3.58s CPU      3.67s WALL (    9703 calls)
     s_psi        :      0.47s CPU      0.49s WALL (    9703 calls)
     g_psi        :      0.03s CPU      0.03s WALL (    6895 calls)

     Called by h_psi:
     h_psi:calbec :      0.41s CPU      0.42s WALL (    9703 calls)
     vloc_psi     :      2.65s CPU      2.73s WALL (    9703 calls)
     add_vuspsi   :      0.47s CPU      0.49s WALL (    9703 calls)

     General routines
     calbec       :      0.67s CPU      0.68s WALL (   14591 calls)
     fft          :      0.16s CPU      0.17s WALL (     435 calls)
     ffts         :      0.00s CPU      0.00s WALL (      51 calls)
     fftw         :      2.50s CPU      2.57s WALL (  104282 calls)
     interpolate  :      0.01s CPU      0.01s WALL (      26 calls)

     Parallel routines

     PAW routines
     PAW_pot      :      3.04s CPU      3.06s WALL (      28 calls)
     PAW_symme    :      0.01s CPU      0.01s WALL (      53 calls)

     PWSCF        :     15.86s CPU     16.17s WALL


   This run was terminated on:  14:17: 9   7Mar2023            

=------------------------------------------------------------------------------=
   JOB DONE.
=------------------------------------------------------------------------------=
